TITLE = "Final State"
VARIABLES = "X", "Y", "rho", "u", "v", "T", "p", "c", "M"
ZONE I=101, J=51, DATAPACKING=POINT
0.0000000000000000e+00,	 0.0000000000000000e+00,	 4.4550030115701376e-02,	 1.5328999906864319e+03,	 -2.8415694085867575e-05,	 1.1883330640420877e+03,	 1.5230568719300823e+04,	 6.6151400645933188e+02,	 2.3172600666327248e+00 
3.0479999999999999e-03,	 0.0000000000000000e+00,	 4.4550008295731733e-02,	 1.5328999789660438e+03,	 -8.1013846984760700e-06,	 1.1883330859935236e+03,	 1.5230561540931338e+04,	 6.6151401256922770e+02,	 2.3172600275124560e+00 
6.0959999999999999e-03,	 0.0000000000000000e+00,	 4.4550007269572603e-02,	 1.5329000039973077e+03,	 8.9834518939237381e-06,	 1.1883330158956578e+03,	 1.5230560291686139e+04,	 6.6151399305840118e+02,	 2.3172601336975451e+00 
9.1439999999999994e-03,	 0.0000000000000000e+00,	 4.4550020595502123e-02,	 1.5329000139156476e+03,	 -9.1336273111476927e-06,	 1.1883329830291564e+03,	 1.5230564426254570e+04,	 6.6151398391043915e+02,	 2.3172601807359272e+00 
1.2192000000000000e-02,	 0.0000000000000000e+00,	 4.4550041259112258e-02,	 1.5328999942697349e+03,	 -3.4363659146992317e-06,	 1.1883330168528541e+03,	 1.5230571924148420e+04,	 6.6151399332482436e+02,	 2.3172601180592598e+00 
1.5240000000000000e-02,	 0.0000000000000000e+00,	 4.4550078140979693e-02,	 1.5328999597735553e+03,	 -9.5991696764046429e-06,	 1.1883330907421800e+03,	 1.5230585480180940e+04,	 6.6151401389095417e+02,	 2.3172599938695218e+00 
1.8287999999999999e-02,	 0.0000000000000000e+00,	 4.4550138459846511e-02,	 1.5328998470888371e+03,	 -1.1355448609791027e-05,	 1.1883332345793340e+03,	 1.5230607945260226e+04,	 6.6151405392614754e+02,	 2.3172596832840267e+00 
2.1336000000000001e-02,	 0.0000000000000000e+00,	 4.4550236302215537e-02,	 1.5328997448420250e+03,	 -2.5758351178100807e-05,	 1.1883334594086396e+03,	 1.5230644276779129e+04,	 6.6151411650444379e+02,	 2.3172593095097280e+00 
2.4383999999999999e-02,	 0.0000000000000000e+00,	 4.4550391886167329e-02,	 1.5328992670678192e+03,	 -3.0714155773473653e-05,	 1.1883339225177460e+03,	 1.5230703402757443e+04,	 6.6151424540478695e+02,	 2.3172581357334545e+00 
2.7432000000000002e-02,	 0.0000000000000000e+00,	 4.4550655449309043e-02,	 1.5328990375952981e+03,	 -4.0106400785038754e-05,	 1.1883343901922763e+03,	 1.5230799502784406e+04,	 6.6151437557583051e+02,	 2.3172573328598505e+00 
3.0480000000000000e-02,	 0.0000000000000000e+00,	 4.4551106267038482e-02,	 1.5328975200166371e+03,	 -4.8727081458052105e-05,	 1.1883351786766245e+03,	 1.5230963732594135e+04,	 6.6151459504000206e+02,	 2.3172542699892253e+00 
3.3528000000000002e-02,	 0.0000000000000000e+00,	 4.4552192472905594e-02,	 1.5328967701200240e+03,	 -3.2827397025858855e-03,	 1.1883418496115735e+03,	 1.5231420584408937e+04,	 6.6151645180344610e+02,	 2.3172466322560985e+00 
3.6575999999999997e-02,	 0.0000000000000000e+00,	 4.4552201801782057e-02,	 1.5328892408889342e+03,	 -9.8330465615527642e-03,	 1.1883474265705977e+03,	 1.5231495255726113e+04,	 6.6151800406966413e+02,	 2.3172298130816174e+00 
3.9623999999999999e-02,	 0.0000000000000000e+00,	 4.4538724204032945e-02,	 1.5329736701652032e+03,	 -8.6333337929017737e-03,	 1.1882367873313879e+03,	 1.5225469862399766e+04,	 6.6148720855031786e+02,	 2.3174653271816124e+00 
4.2672000000000002e-02,	 0.0000000000000000e+00,	 4.4506518450391039e-02,	 1.5331614348526887e+03,	 1.4412193254313647e-02,	 1.1879904698048194e+03,	 1.5211306485828289e+04,	 6.6141864294971697e+02,	 2.3179894477770016e+00 
4.5719999999999997e-02,	 0.0000000000000000e+00,	 4.4449666369810112e-02,	 1.5333019979344469e+03,	 1.2916194900959195e-02,	 1.1876694306050247e+03,	 1.5187770339833382e+04,	 6.6132926695520030e+02,	 2.3185152610109987e+00 
4.8767999999999999e-02,	 0.0000000000000000e+00,	 4.4523289666649798e-02,	 1.5324760987523184e+03,	 -3.1679729925301814e-01,	 1.1882686911412061e+03,	 1.5220602255767639e+04,	 6.6149608885964119e+02,	 2.3166820746268248e+00 
5.1816000000000001e-02,	 0.0000000000000000e+00,	 4.5002081495742294e-02,	 1.5293525584085196e+03,	 -7.2870861237980455e-01,	 1.1922548937324523e+03,	 1.5435889216924568e+04,	 6.6260469742769931e+02,	 2.3080921972841444e+00 
5.4864000000000003e-02,	 0.0000000000000000e+00,	 4.5547534499453729e-02,	 1.5252975877254751e+03,	 -1.0380255106279870e+00,	 1.1979943004230686e+03,	 1.5698189335489236e+04,	 6.6419764205025183e+02,	 2.2964519058301631e+00 
5.7911999999999998e-02,	 0.0000000000000000e+00,	 4.5488736763714621e-02,	 1.5247633648291580e+03,	 -1.2618601073929170e+00,	 1.1989045934462581e+03,	 1.5689837229229996e+04,	 6.6444993860511534e+02,	 2.2947761725640885e+00 
6.0960000000000000e-02,	 0.0000000000000000e+00,	 4.4392759942382745e-02,	 1.5324958709191660e+03,	 5.5863506688184206e-01,	 1.1889137048236212e+03,	 1.5184217539618874e+04,	 6.6167560050775535e+02,	 2.3160835484363469e+00 
6.4007999999999995e-02,	 0.0000000000000000e+00,	 4.1777957781309681e-02,	 1.5509642281524980e+03,	 3.4555993969095407e+00,	 1.1646853581856819e+03,	 1.3998637257405877e+04,	 6.5489890072803144e+02,	 2.3682557353787073e+00 
6.7056000000000004e-02,	 0.0000000000000000e+00,	 3.8158564293282071e-02,	 1.5764572501543153e+03,	 1.8672549399677600e+00,	 1.1306285478521283e+03,	 1.2412004106083452e+04,	 6.4525284348409468e+02,	 2.4431637487852109e+00 
7.0104000000000000e-02,	 0.0000000000000000e+00,	 3.4606043356902677e-02,	 1.6026399842881410e+03,	 6.7642708029447007e-01,	 1.0948609344418278e+03,	 1.0900360093077255e+04,	 6.3496448307979983e+02,	 2.5239838916103334e+00 
7.3151999999999995e-02,	 0.0000000000000000e+00,	 3.1391245477784394e-02,	 1.6275400169453969e+03,	 8.9391651409433504e-01,	 1.0600923764906597e+03,	 9.5737524994226005e+03,	 6.2480113418684437e+02,	 2.6048932586408995e+00 
7.6200000000000004e-02,	 0.0000000000000000e+00,	 2.8438571258819895e-02,	 1.6515984433981146e+03,	 7.5118587579459195e-01,	 1.0257559920071476e+03,	 8.3923149510307212e+03,	 6.1459919185205990e+02,	 2.6872775560436746e+00 
7.9247999999999999e-02,	 0.0000000000000000e+00,	 2.5831286113757686e-02,	 1.6739928082112069e+03,	 3.5240035947090398e-01,	 9.9316604362346163e+02,	 7.3807047032595137e+03,	 6.0475697337440261e+02,	 2.7680422368070823e+00 
8.2295999999999994e-02,	 0.0000000000000000e+00,	 2.3568396084839675e-02,	 1.6944989136828347e+03,	 3.6496274971274723e-01,	 9.6288333386405952e+02,	 6.5288040677268846e+03,	 5.9546575226088623e+02,	 2.8456698753070286e+00 
8.5344000000000003e-02,	 0.0000000000000000e+00,	 2.1570208924586689e-02,	 1.7134779351775333e+03,	 4.1726431242971262e-01,	 9.3432545447970415e+02,	 5.7980568576636651e+03,	 5.8656891496740263e+02,	 2.9211878472602573e+00 
8.8391999999999998e-02,	 0.0000000000000000e+00,	 1.9799292455521637e-02,	 1.7310748665413532e+03,	 3.2594215496238022e-01,	 9.0733727771606743e+02,	 5.1683077043421945e+03,	 5.7803525938764642e+02,	 2.9947565812176324e+00 
9.1439999999999994e-02,	 0.0000000000000000e+00,	 1.8236371732197214e-02,	 1.7473988509327251e+03,	 2.6708913351610963e-01,	 8.8199895602564948e+02,	 4.6273936350550821e+03,	 5.6990699708864179e+02,	 3.0661123310847271e+00 
9.4488000000000003e-02,	 0.0000000000000000e+00,	 1.6850614688866984e-02,	 1.7625698325321923e+03,	 2.8174921613291115e-01,	 8.5816262028760048e+02,	 4.1602102448258011e+03,	 5.6215328182371093e+02,	 3.1353901365356212e+00 
9.7535999999999998e-02,	 0.0000000000000000e+00,	 1.5611685474548749e-02,	 1.7767140244076174e+03,	 2.7978203377631683e-01,	 8.3559967548488248e+02,	 3.7529950635407345e+03,	 5.5471394640495032e+02,	 3.2029374021533106e+00 
1.0058400000000001e-01,	 0.0000000000000000e+00,	 1.4501046193001649e-02,	 1.7899288768148504e+03,	 2.3286911685626865e-01,	 8.1422446938901135e+02,	 3.3968269563505414e+03,	 5.4757300364177911e+02,	 3.2688406478379131e+00 
1.0363200000000000e-01,	 0.0000000000000000e+00,	 1.3505455067403662e-02,	 1.8022874448908713e+03,	 1.9204016148449554e-01,	 7.9401769202867160e+02,	 3.0851006635163444e+03,	 5.4073570009594039e+02,	 3.3330284181391789e+00 
1.0668000000000000e-01,	 0.0000000000000000e+00,	 1.2610235133470576e-02,	 1.8138581668696122e+03,	 1.7380907235086696e-01,	 7.7489721184000530e+02,	 2.8112354477214981e+03,	 5.3418538608710605e+02,	 3.3955593365882146e+00 
1.0972800000000001e-01,	 0.0000000000000000e+00,	 1.1802084385790624e-02,	 1.8247047080103089e+03,	 1.4727955774807544e-01,	 7.5676783392137122e+02,	 2.5695159467345161e+03,	 5.2789954259974388e+02,	 3.4565377817301584e+00 
1.1277600000000000e-01,	 0.0000000000000000e+00,	 1.1071320000156190e-02,	 1.8348777111741026e+03,	 1.1705562504664080e-01,	 7.3956396018835585e+02,	 2.3556191723950242e+03,	 5.2186458217248298e+02,	 3.5160035334634396e+00 
1.1582400000000000e-01,	 0.0000000000000000e+00,	 1.0412343188272402e-02,	 1.8444031641319507e+03,	 1.1733498816660948e-01,	 7.2327234080074015e+02,	 2.1666076318787777e+03,	 5.1608457895435686e+02,	 3.5738389463237747e+00 
1.1887200000000001e-01,	 0.0000000000000000e+00,	 9.8217756296320353e-03,	 1.8532542127968941e+03,	 1.4601371400121277e-01,	 7.0801294527531729e+02,	 2.0006040546540435e+03,	 5.1061145412841171e+02,	 3.6294803094700487e+00 
1.2192000000000000e-01,	 0.0000000000000000e+00,	 9.2886348622242473e-03,	 1.8615101516097411e+03,	 1.5414331792731417e-01,	 6.9370345123910920e+02,	 1.8537692917219504e+03,	 5.0542518780621128e+02,	 3.6830577559293207e+00 
1.2496800000000000e-01,	 0.0000000000000000e+00,	 8.8049593539535238e-03,	 1.8692393176519504e+03,	 1.5296109049461082e-01,	 6.8023777507144086e+02,	 1.7231299797320016e+03,	 5.0049567205205346e+02,	 3.7347761994553190e+00 
1.2801599999999999e-01,	 0.0000000000000000e+00,	 8.3648270750339565e-03,	 1.8764880085374357e+03,	 1.6802184482065563e-01,	 6.6753559957421294e+02,	 1.6064282625863987e+03,	 4.9580073849742621e+02,	 3.7847624465964054e+00 
1.3106400000000001e-01,	 0.0000000000000000e+00,	 7.9641139914443070e-03,	 1.8832798094186148e+03,	 2.0578311830949003e-01,	 6.5555633572928537e+02,	 1.5020259090031118e+03,	 4.9133190138267543e+02,	 3.8330094491353215e+00 
1.3411200000000001e-01,	 0.0000000000000000e+00,	 7.5996017426090672e-03,	 1.8896288302003563e+03,	 2.6887754966082733e-01,	 6.4429047512962040e+02,	 1.4086479972036641e+03,	 4.8709178946075008e+02,	 3.8794101855458951e+00 
1.3716000000000000e-01,	 0.0000000000000000e+00,	 7.2703525735706535e-03,	 1.8955125347435958e+03,	 3.9684923265280636e-01,	 6.3379433108568423e+02,	 1.3256649082032097e+03,	 4.8310788822626853e+02,	 3.9235802653640079e+00 
1.4020800000000000e-01,	 0.0000000000000000e+00,	 6.9771368958578307e-03,	 1.9008783235511510e+03,	 6.0797941237053710e-01,	 6.2418147248040577e+02,	 1.2529047480703825e+03,	 4.7943020316023745e+02,	 3.9648699815941586e+00 
1.4325599999999999e-01,	 0.0000000000000000e+00,	 6.7198382860268243e-03,	 1.9056951799590065e+03,	 1.1652794604767269e+00,	 6.1552751036119309e+02,	 1.1899705881981727e+03,	 4.7609507354427791e+02,	 4.0027625617715765e+00 
1.4630399999999999e-01,	 0.0000000000000000e+00,	 6.4939527000195960e-03,	 1.9098065759374870e+03,	 1.8345894419933257e+00,	 6.0812884808836498e+02,	 1.1361473614729578e+03,	 4.7322508338062124e+02,	 4.0357274459362413e+00 
1.4935200000000001e-01,	 0.0000000000000000e+00,	 6.2843084522629846e-03,	 1.9130576607185981e+03,	 1.9868126500178569e+00,	 6.0227665580328289e+02,	 1.0888886251971514e+03,	 4.7094259083881445e+02,	 4.0621908692022739e+00 
1.5240000000000001e-01,	 0.0000000000000000e+00,	 6.0961127666132476e-03,	 1.9153168215552319e+03,	 9.5623559844046224e-01,	 5.9821429983716939e+02,	 1.0491551572260980e+03,	 4.6935164971794558e+02,	 4.0807719785579577e+00 
1.5544800000000000e-01,	 0.0000000000000000e+00,	 5.9806884131606858e-03,	 1.9164241042023243e+03,	 -7.2317108090624704e-01,	 5.9617070151344342e+02,	 1.0257741331213304e+03,	 4.6854927269818120e+02,	 4.0901231787477190e+00 
1.5849600000000000e-01,	 0.0000000000000000e+00,	 5.9870745405297271e-03,	 1.9160600861669798e+03,	 -2.0167823304709827e+00,	 5.9584281664062792e+02,	 1.0263046831993749e+03,	 4.6842040746907685e+02,	 4.0904732522628517e+00 
1.6154399999999999e-01,	 0.0000000000000000e+00,	 6.1027300629724378e-03,	 1.9143406818106564e+03,	 -3.0978641242512550e+00,	 5.9663184338369251e+02,	 1.0475156662549321e+03,	 4.6873045060669193e+02,	 4.0841024641693844e+00 
1.6459199999999999e-01,	 0.0000000000000000e+00,	 6.3141657244110147e-03,	 1.9117009492354464e+03,	 -2.9583100659462289e+00,	 6.0202780400786708e+02,	 1.0936099753950664e+03,	 4.7084528753439406e+02,	 4.0601515801522394e+00 
1.6764000000000001e-01,	 0.0000000000000000e+00,	 6.5558479512440419e-03,	 1.9075799469676590e+03,	 -2.2700688703857606e+00,	 6.1062304046645068e+02,	 1.1516804570996874e+03,	 4.7419453799025393e+02,	 4.0227820965039500e+00 
1.7068800000000001e-01,	 0.0000000000000000e+00,	 6.7069564318033067e-03,	 1.9038899040315760e+03,	 -3.0889276594467905e+00,	 6.1596152859110748e+02,	 1.1885268866895383e+03,	 4.7626289506746770e+02,	 3.9975661121875068e+00 
1.7373600000000000e-01,	 0.0000000000000000e+00,	 6.8285555800830892e-03,	 1.9011308311616353e+03,	 -3.6836346376447802e+00,	 6.2115754970963349e+02,	 1.2202829807625626e+03,	 4.7826746433913240e+02,	 3.9750443875456374e+00 
1.7678400000000000e-01,	 0.0000000000000000e+00,	 6.9121296897473837e-03,	 1.8992839767166140e+03,	 -3.6536761732026060e+00,	 6.2599151772013556e+02,	 1.2448306245459187e+03,	 4.8012484260880592e+02,	 3.9558200752631558e+00 
1.7983199999999999e-01,	 0.0000000000000000e+00,	 6.9466079941925187e-03,	 1.8986748113707827e+03,	 -2.8842053753359060e+00,	 6.2796512563455894e+02,	 1.2549841905271817e+03,	 4.8088110883867137e+02,	 3.9483293627372675e+00 
1.8287999999999999e-01,	 0.0000000000000000e+00,	 6.9507057851152139e-03,	 1.8990451189477953e+03,	 -2.2406634477054252e+00,	 6.2731285512179898e+02,	 1.2544201760144263e+03,	 4.8063129714674869e+02,	 3.9511501895291214e+00 
1.8592800000000001e-01,	 0.0000000000000000e+00,	 6.9270444768430740e-03,	 1.9002505994737978e+03,	 -1.4023515430302356e+00,	 6.2515922011204884e+02,	 1.2458580260038148e+03,	 4.7980555739397045e+02,	 3.9604608317798582e+00 
1.8897600000000001e-01,	 0.0000000000000000e+00,	 6.8946367851211322e-03,	 1.9015285342948218e+03,	 -5.8092188936975364e-01,	 6.2295439202549119e+02,	 1.2356559982177141e+03,	 4.7895871459700948e+02,	 3.9701305458682703e+00 
1.9202400000000000e-01,	 0.0000000000000000e+00,	 6.8604127351491739e-03,	 1.9023484181147041e+03,	 -1.3379062071058484e-01,	 6.2161379205196613e+02,	 1.2268764316607985e+03,	 4.7844307664132771e+02,	 3.9761227943225563e+00 
1.9507200000000000e-01,	 0.0000000000000000e+00,	 6.8217614040662284e-03,	 1.9029312352039537e+03,	 -8.2620604914070972e-03,	 6.2061026518001927e+02,	 1.2179947540788435e+03,	 4.7805672387193556e+02,	 3.9805553194805752e+00 
1.9811999999999999e-01,	 0.0000000000000000e+00,	 6.7938868825327473e-03,	 1.9034040374073427e+03,	 -6.1800291665606633e-02,	 6.1975738684851535e+02,	 1.2113508849215107e+03,	 4.7772812441124370e+02,	 3.9842829868063339e+00 
2.0116800000000001e-01,	 0.0000000000000000e+00,	 6.7786512977014270e-03,	 1.9037928550869476e+03,	 -7.3049919899591503e-02,	 6.1905473136484193e+02,	 1.2072640781888465e+03,	 4.7745723334000610e+02,	 3.9873578690402014e+00 
2.0421600000000001e-01,	 0.0000000000000000e+00,	 6.7696360422110184e-03,	 1.9041101104960781e+03,	 -2.2117542868982903e-02,	 6.1848039651323006e+02,	 1.2045399164844230e+03,	 4.7723569883940451e+02,	 3.9898735892037469e+00 
2.0726400000000000e-01,	 0.0000000000000000e+00,	 6.7588107264365625e-03,	 1.9043647088039952e+03,	 8.0778310994863434e-03,	 6.1798463441386889e+02,	 1.2016497460903802e+03,	 4.7704438897341834e+02,	 3.9920073536956360e+00 
2.1031200000000000e-01,	 0.0000000000000000e+00,	 6.7453507910667067e-03,	 1.9046092353499034e+03,	 -1.6028362746693309e-02,	 6.1752171264558933e+02,	 1.1983583598353666e+03,	 4.7686568258568707e+02,	 3.9940161453641858e+00 
2.1335999999999999e-01,	 0.0000000000000000e+00,	 6.7330559496482090e-03,	 1.9048619092384351e+03,	 -1.6463420163898568e-03,	 6.1709738044190999e+02,	 1.1953521407574951e+03,	 4.7670181446976483e+02,	 3.9959191499153901e+00 
2.1640799999999999e-01,	 0.0000000000000000e+00,	 6.7209117777291003e-03,	 1.9050924395828922e+03,	 3.9360696534211731e-02,	 6.1669899511049516e+02,	 1.1924258241134030e+03,	 4.7654791520125519e+02,	 3.9976933676961885e+00 
2.1945600000000001e-01,	 0.0000000000000000e+00,	 6.7088653310930562e-03,	 1.9052943933143251e+03,	 5.7953560085759442e-02,	 6.1633277343540215e+02,	 1.1895816974274840e+03,	 4.7640639713937242e+02,	 3.9993048070643820e+00 
2.2250400000000001e-01,	 0.0000000000000000e+00,	 6.6985523617721626e-03,	 1.9054726732327952e+03,	 4.7321702002189686e-02,	 6.1600936375450840e+02,	 1.1871298021099892e+03,	 4.7628138783857116e+02,	 4.0007288180369471e+00 
2.2555200000000000e-01,	 0.0000000000000000e+00,	 6.6911472330215063e-03,	 1.9056272931611281e+03,	 3.9245881865269436e-02,	 6.1572848064592040e+02,	 1.1852767518148244e+03,	 4.7617278993564281e+02,	 4.0019659540454056e+00 
2.2860000000000000e-01,	 0.0000000000000000e+00,	 6.6856938251793428e-03,	 1.9057579384625662e+03,	 4.1096390945160585e-02,	 6.1548354097551692e+02,	 1.1838396051515879e+03,	 4.7607806863271082e+02,	 4.0030366119972358e+00 
2.3164799999999999e-01,	 0.0000000000000000e+00,	 6.6799362458464448e-03,	 1.9058546930932362e+03,	 3.5314176076897685e-05,	 6.1525687513566584e+02,	 1.1823845068479418e+03,	 4.7599039726130604e+02,	 4.0039771895796736e+00 
2.3469599999999999e-01,	 0.0000000000000000e+00,	 6.6722049276584051e-03,	 1.9059617794060955e+03,	 -7.9206025618973400e-02,	 6.1498915042160274e+02,	 1.1805021112651139e+03,	 4.7588682405130487e+02,	 4.0050736534920279e+00 
2.3774400000000001e-01,	 0.0000000000000000e+00,	 6.6628409127214025e-03,	 1.9061184720805336e+03,	 -1.3526236938320593e-01,	 6.1467235698427692e+02,	 1.1782381044386161e+03,	 4.7576423876482113e+02,	 4.0064349557429013e+00 
2.4079200000000001e-01,	 0.0000000000000000e+00,	 6.6522354809088659e-03,	 1.9063219846452700e+03,	 -1.4922392164170475e-01,	 6.1430504079449861e+02,	 1.1756596982693313e+03,	 4.7562206381510003e+02,	 4.0080604654767837e+00 
2.4383999999999989e-01,	 0.0000000000000000e+00,	 6.6409062407550429e-03,	 1.9065576923278272e+03,	 -1.3095926089187873e-01,	 6.1390483737383920e+02,	 1.1728928577483596e+03,	 4.7546711100207398e+02,	 4.0098624125806914e+00 
2.4688800000000000e-01,	 0.0000000000000000e+00,	 6.6293735318522524e-03,	 1.9068029625285985e+03,	 -9.5268530139238305e-02,	 6.1350429971524204e+02,	 1.1700920760755916e+03,	 4.7531197819881277e+02,	 4.0116871704650121e+00 
2.4993599999999999e-01,	 0.0000000000000000e+00,	 6.6176337889790084e-03,	 1.9070561096383972e+03,	 -5.4688092786034120e-02,	 6.1309591391542563e+02,	 1.1672424927189804e+03,	 4.7515375357333528e+02,	 4.0135558144721655e+00 
2.5298399999999988e-01,	 0.0000000000000000e+00,	 6.6050208949003375e-03,	 1.9072948392822855e+03,	 1.7722610906870939e-03,	 6.1269646418730463e+02,	 1.1642587414547841e+03,	 4.7499894014324940e+02,	 4.0153665157819303e+00 
2.5603199999999998e-01,	 0.0000000000000000e+00,	 6.5916410076726530e-03,	 1.9074954583580279e+03,	 2.7707928139178856e-02,	 6.1233706094409763e+02,	 1.1612187233610298e+03,	 4.7485960426313261e+02,	 4.0169672076428578e+00 
2.5907999999999998e-01,	 0.0000000000000000e+00,	 6.5804405466756075e-03,	 1.9076604459957725e+03,	 5.5381734166592839e-03,	 6.1203804343547154e+02,	 1.1586795054245938e+03,	 4.7474364796759721e+02,	 4.0182958827792792e+00 
2.6212800000000003e-01,	 0.0000000000000000e+00,	 6.5740806244666411e-03,	 1.9077914115512983e+03,	 -1.7956855670938798e-02,	 6.1180031903733084e+02,	 1.1571100417831931e+03,	 4.7465144037506559e+02,	 4.0193524117998791e+00 
2.6517600000000002e-01,	 0.0000000000000000e+00,	 6.5720159217030815e-03,	 1.9078958878493772e+03,	 -1.1443148777413384e-02,	 6.1160999091199199e+02,	 1.1563867732384640e+03,	 4.7457760374637746e+02,	 4.0201979040361691e+00 
2.6822400000000002e-01,	 0.0000000000000000e+00,	 6.5704585678864795e-03,	 1.9079555964816404e+03,	 4.0028956403179508e-03,	 6.1146196912663959e+02,	 1.1558329449353544e+03,	 4.7452017166049279e+02,	 4.0208103057227538e+00 
2.7127200000000001e-01,	 0.0000000000000000e+00,	 6.5666265499191561e-03,	 1.9079959584047601e+03,	 -6.3172627723202951e-02,	 6.1132641613043620e+02,	 1.1549027575329465e+03,	 4.7446757133574749e+02,	 4.0213411299724200e+00 
2.7432000000000001e-01,	 0.0000000000000000e+00,	 6.5608760396389859e-03,	 1.9080730922084786e+03,	 -1.2308681287928480e-01,	 6.1116503481001428e+02,	 1.1535867782747962e+03,	 4.7440494091837769e+02,	 4.0220346198013885e+00 
2.7736799999999989e-01,	 0.0000000000000000e+00,	 6.5535812402620673e-03,	 1.9081989054439669e+03,	 -1.4796524615372142e-01,	 6.1094017928908920e+02,	 1.1518801995054671e+03,	 4.7431766303318858e+02,	 4.0230399580274456e+00 
2.8041599999999989e-01,	 0.0000000000000000e+00,	 6.5450438221050554e-03,	 1.9083707765872314e+03,	 -1.4699092368821981e-01,	 6.1063176509787354e+02,	 1.1497988997795605e+03,	 4.7419792564312201e+02,	 4.0244182419397472e+00 
2.8346399999999988e-01,	 0.0000000000000000e+00,	 6.5356803813441597e-03,	 1.9085726517996281e+03,	 -1.2878902751491061e-01,	 6.1026880045777330e+02,	 1.1474715073677473e+03,	 4.7405697108276365e+02,	 4.0260406925051013e+00 
2.8651199999999988e-01,	 0.0000000000000000e+00,	 6.5257530843890032e-03,	 1.9087878016512691e+03,	 -1.0359075417311100e-01,	 6.0989046744888901e+02,	 1.1450182801048970e+03,	 4.7391000370893408e+02,	 4.0277432202814731e+00 
2.8955999999999987e-01,	 0.0000000000000000e+00,	 6.5155226066021584e-03,	 1.9090054273506464e+03,	 -7.6624708150243442e-02,	 6.0952182715847789e+02,	 1.1425322190757311e+03,	 4.7376675771819112e+02,	 4.0294203799414205e+00 
2.9260799999999998e-01,	 0.0000000000000000e+00,	 6.5050734064020094e-03,	 1.9092255132070632e+03,	 -4.8467120837131672e-02,	 6.0915459882412631e+02,	 1.1400126395056175e+03,	 4.7362401730868891e+02,	 4.0310994460779099e+00 
2.9565599999999997e-01,	 0.0000000000000000e+00,	 6.4945066624024200e-03,	 1.9094453618074185e+03,	 -1.5129575533755629e-02,	 6.0878278039402517e+02,	 1.1374661044702918e+03,	 4.7347944890223232e+02,	 4.0327945939246783e+00 
2.9870400000000003e-01,	 0.0000000000000000e+00,	 6.4836203934401275e-03,	 1.9096507106522047e+03,	 1.5285883490979146e-02,	 6.0842093144473608e+02,	 1.1348844977822662e+03,	 4.7333871438023380e+02,	 4.0344274674717546e+00 
3.0175200000000002e-01,	 0.0000000000000000e+00,	 6.4722336247631518e-03,	 1.9098415115240541e+03,	 2.0622511302858054e-02,	 6.0807468790726784e+02,	 1.1322466605061843e+03,	 4.7320401011056100e+02,	 4.0359791354878283e+00 
3.0480000000000002e-01,	 0.0000000000000000e+00,	 6.4621227218206422e-03,	 1.9100195239067439e+03,	 -1.1893974642381289e-02,	 6.0775189487085947e+02,	 1.1298777605127175e+03,	 4.7307839459087148e+02,	 4.0374270856220420e+00 
0.0000000000000000e+00,	 6.5730119999999996e-04,	 4.4550039945859418e-02,	 1.5329000149308704e+03,	 -3.8584578430177666e-05,	 1.1883330120936030e+03,	 1.5230571414181173e+04,	 6.6151399200014885e+02,	 2.3172601539326561e+00 
3.0479999999999999e-03,	 6.5825326865089995e-04,	 4.4550008729566201e-02,	 1.5329000014349676e+03,	 -5.7790082006439044e-06,	 1.1883330214517086e+03,	 1.5230560862032804e+04,	 6.6151399460485550e+02,	 2.3172601244069222e+00 
6.0959999999999999e-03,	 6.6461592907580004e-04,	 4.4550008450077498e-02,	 1.5329000095841479e+03,	 1.7925078078968640e-05,	 1.1883329897863737e+03,	 1.5230560360635927e+04,	 6.6151398579122247e+02,	 2.3172601675997515e+00 
9.1439999999999994e-03,	 6.7224283956379997e-04,	 4.4550021500903321e-02,	 1.5329000156178427e+03,	 -1.1038762472338849e-05,	 1.1883329888402432e+03,	 1.5230564810268372e+04,	 6.6151398552787941e+02,	 2.3172601776432717e+00 
1.2192000000000000e-02,	 6.8039503864980003e-04,	 4.4550042152878166e-02,	 1.5328999963847268e+03,	 -2.2263928982899518e-05,	 1.1883330230119861e+03,	 1.5230572308645253e+04,	 6.6151399503913842e+02,	 2.3172601152512775e+00 
1.5240000000000000e-02,	 6.8896921147369998e-04,	 4.4550079639573428e-02,	 1.5328999593206752e+03,	 -4.8181645980665022e-05,	 1.1883330964197739e+03,	 1.5230586065281985e+04,	 6.6151401547123839e+02,	 2.3172599876492321e+00 
1.8287999999999999e-02,	 6.9790389080560001e-04,	 4.4550140998627231e-02,	 1.5328998585467650e+03,	 -8.0557779564246741e-05,	 1.1883332405945500e+03,	 1.5230608890303274e+04,	 6.6151405560040439e+02,	 2.3172596947399318e+00 
2.1336000000000001e-02,	 7.0716313557659999e-04,	 4.4550240228266584e-02,	 1.5328997404052611e+03,	 -1.5159516073108841e-04,	 1.1883334849436690e+03,	 1.5230645946278324e+04,	 6.6151412361178484e+02,	 2.3172592779060057e+00 
2.4383999999999999e-02,	 7.1672498233810004e-04,	 4.4550397283185161e-02,	 1.5328993513684409e+03,	 -2.3661368164502845e-04,	 1.1883339471745944e+03,	 1.5230705563890824e+04,	 6.6151425226769652e+02,	 2.3172582391288179e+00 
2.7432000000000002e-02,	 7.2654568335240005e-04,	 4.4550654501072991e-02,	 1.5328990478051298e+03,	 -3.0348354905348839e-04,	 1.1883345603882130e+03,	 1.5230801359994744e+04,	 6.6151442294762080e+02,	 2.3172571823525243e+00 
3.0480000000000000e-02,	 7.3659166246549997e-04,	 4.4551082835303388e-02,	 1.5328979215884381e+03,	 -4.3197341595617640e-04,	 1.1883361245149990e+03,	 1.5230967844702327e+04,	 6.6151485830148590e+02,	 2.3172539548459841e+00 
3.3528000000000002e-02,	 7.4684782576880005e-04,	 4.4552417783825606e-02,	 1.5328964241708863e+03,	 -5.2980654996073141e-03,	 1.1883419655127050e+03,	 1.5231499098842163e+04,	 6.6151648406289371e+02,	 2.3172459962982597e+00 
3.6575999999999997e-02,	 7.5729429427989997e-04,	 4.4552252783050993e-02,	 1.5328968543080082e+03,	 7.0636497272732130e-03,	 1.1883371815149994e+03,	 1.5231381370313737e+04,	 6.6151515250320017e+02,	 2.3172513109091142e+00 
3.9623999999999999e-02,	 7.6791011237950003e-04,	 4.4538739104103262e-02,	 1.5329868608861314e+03,	 5.5695171724438282e-02,	 1.1882195310957966e+03,	 1.5225253843141094e+04,	 6.6148240529027896e+02,	 2.3175020977695455e+00 
4.2672000000000002e-02,	 7.7868004371589995e-04,	 4.4507907397667634e-02,	 1.5331790072571562e+03,	 1.2510023523303115e-01,	 1.1879631835717032e+03,	 1.5211431805944940e+04,	 6.6141104704412248e+02,	 2.3180426441511721e+00 
4.5719999999999997e-02,	 7.8959730561900001e-04,	 4.4474300726841387e-02,	 1.5333515396534212e+03,	 -1.2339279968548627e-03,	 1.1877125830174509e+03,	 1.5196739655964891e+04,	 6.6134128111222253e+02,	 2.3185480529435218e+00 
4.8767999999999999e-02,	 8.0062672720359999e-04,	 4.4590175909143985e-02,	 1.5325339759420078e+03,	 -1.1003606853002157e+00,	 1.1888053534905507e+03,	 1.5250352257868046e+04,	 6.6164544900617898e+02,	 2.3162471279351218e+00 
5.1816000000000001e-02,	 8.1176164098530003e-04,	 4.5051944621625269e-02,	 1.5294387221170089e+03,	 -2.5465030261921036e+00,	 1.1929354340866548e+03,	 1.5461813047738249e+04,	 6.6279377818068724e+02,	 2.3075666857753752e+00 
5.4864000000000003e-02,	 8.2298752711009999e-04,	 4.5602809551996998e-02,	 1.5258610180864810e+03,	 -2.0084045527883143e+00,	 1.1975652923815915e+03,	 1.5711611737248122e+04,	 6.6407870507191490e+02,	 2.2977130996774329e+00 
5.7911999999999998e-02,	 8.3429685014089995e-04,	 4.5532173197763579e-02,	 1.5263587229487068e+03,	 1.2735518462592821e+00,	 1.1968478728979467e+03,	 1.5677877578792495e+04,	 6.6387976210897455e+02,	 2.2991501494308650e+00 
6.0960000000000000e-02,	 8.4568656728430005e-04,	 4.4136003229455711e-02,	 1.5351840044702103e+03,	 7.9525430581520036e+00,	 1.1853430937474477e+03,	 1.5051057464710653e+04,	 6.6068126309312470e+02,	 2.3236690487967819e+00 
6.4007999999999995e-02,	 8.5714426976289996e-04,	 4.1450808369490770e-02,	 1.5530604944396223e+03,	 1.5483373347693558e+01,	 1.1617194717327070e+03,	 1.3853649978006666e+04,	 6.5406451490029542e+02,	 2.3745940019167917e+00 
6.7056000000000004e-02,	 8.6865439963430000e-04,	 3.8063359752566778e-02,	 1.5769924059197192e+03,	 1.8752266506774593e+01,	 1.1295742964343694e+03,	 1.2369491843464766e+04,	 6.4495194122195971e+02,	 2.4453045169170786e+00 
7.0104000000000000e-02,	 8.8019974984389999e-04,	 3.4552429055427325e-02,	 1.6028585181116650e+03,	 1.9357564335410004e+01,	 1.0941629863001297e+03,	 1.0876534472080133e+04,	 6.3476206333973585e+02,	 2.5253169591046225e+00 
7.3151999999999995e-02,	 8.9177341889660003e-04,	 3.1317531702568388e-02,	 1.6279321873042309e+03,	 2.0291620583373668e+01,	 1.0591097587285151e+03,	 9.5424179171242486e+03,	 6.2451149762314242e+02,	 2.6069314218562258e+00 
7.6200000000000004e-02,	 9.0338003509370004e-04,	 2.8400861169843167e-02,	 1.6517301523098622e+03,	 2.0806083873318105e+01,	 1.0251266831079306e+03,	 8.3760446609709834e+03,	 6.1441063234858734e+02,	 2.6885296289958696e+00 
7.9247999999999999e-02,	 9.1500359108569998e-04,	 2.5812808763538708e-02,	 1.6739528448804945e+03,	 2.0575497107522075e+01,	 9.9274384363296144e+02,	 7.3722898879335398e+03,	 6.0462841706140000e+02,	 2.7687737548824294e+00 
8.2295999999999994e-02,	 9.2664516628309995e-04,	 2.3543420871540967e-02,	 1.6944676772607716e+03,	 2.0422990156220106e+01,	 9.6234548961814551e+02,	 6.5182425802460193e+03,	 5.9529942236750082e+02,	 2.8466191729503976e+00 
8.5344000000000003e-02,	 9.3828285567649995e-04,	 2.1548944694073296e-02,	 1.7134494857014110e+03,	 2.0368455986216865e+01,	 9.3380991577113866e+02,	 5.7891449706632957e+03,	 5.8640706520449498e+02,	 2.9221519437162837e+00 
8.8391999999999998e-02,	 9.4991840710560000e-04,	 1.9785872354107753e-02,	 1.7310664143870194e+03,	 2.0159184429620151e+01,	 9.0691935933587501e+02,	 5.1624256862435323e+03,	 5.7790212290768136e+02,	 2.9956349422672739e+00 
9.1439999999999994e-02,	 9.6154837382809999e-04,	 1.8224507900000637e-02,	 1.7474010349873988e+03,	 1.9882095729379198e+01,	 8.8159086360556830e+02,	 4.6222435858058707e+03,	 5.6977513659559872e+02,	 3.0670242158326664e+00 
9.4488000000000003e-02,	 9.7316538085500000e-04,	 1.6838287385459959e-02,	 1.7625764617147577e+03,	 1.9664053607784084e+01,	 8.5773093302443590e+02,	 4.1550755773803012e+03,	 5.6201187218165592e+02,	 3.1363859659001827e+00 