TITLE = "Final State"
VARIABLES = "X", "Y", "rho", "u", "v", "T", "p", "c", "M"
ZONE I=101, J=51, DATAPACKING=POINT
0.0000000000000000e+00,	 0.0000000000000000e+00,	 4.4575804254813778e-02,	 1.5322087582282661e+03,	 -8.7327224265265868e-01,	 1.1894010314007535e+03,	 1.5253076059334349e+04,	 6.6181119448247796e+02,	 2.3151754153754807e+00 
7.9687403463341994e-02,	 0.0000000000000000e+00,	 4.3797483457877234e-02,	 1.5378407587452070e+03,	 4.0261048373858910e-02,	 1.1808121501071387e+03,	 1.4878525990503131e+04,	 6.5941733549401829e+02,	 2.3321206108725043e+00 
1.5937480692668390e-01,	 0.0000000000000000e+00,	 4.2867345757374678e-02,	 1.5446589388883272e+03,	 -2.5472536510743549e-02,	 1.1703662784598025e+03,	 1.4433721835987286e+04,	 6.5649413961209791e+02,	 2.3528906747150078e+00 
2.3906221039002579e-01,	 0.0000000000000000e+00,	 4.2013041449093236e-02,	 1.5508522759943166e+03,	 -2.3801272392621309e-02,	 1.1608463743696420e+03,	 1.4031005966831064e+04,	 6.5381868561286660e+02,	 2.3719913644304063e+00 
3.1874961385336781e-01,	 0.0000000000000000e+00,	 4.1172594330319216e-02,	 1.5569265336319950e+03,	 -1.7463983679222306e-03,	 1.1514720109038253e+03,	 1.3639283503391071e+04,	 6.5117339238596480e+02,	 2.3909553919705457e+00 
3.9843701731670977e-01,	 0.0000000000000000e+00,	 4.0362486084532148e-02,	 1.5628127859258698e+03,	 -4.8357520856743275e-03,	 1.1423439730531504e+03,	 1.3264923218278085e+04,	 6.4858724090071269e+02,	 2.4095644924544404e+00 
4.7812442078005168e-01,	 0.0000000000000000e+00,	 3.9579499209107014e-02,	 1.5685485099139028e+03,	 -1.5136314628211300e-03,	 1.1334258162339052e+03,	 1.2906049686800068e+04,	 6.4605055479417911e+02,	 2.4279036652392416e+00 
5.5781182424339371e-01,	 0.0000000000000000e+00,	 3.8822039695965621e-02,	 1.5741394011350931e+03,	 -2.4494464506141789e-03,	 1.1246986938186151e+03,	 1.2561586045552334e+04,	 6.4355852694094540e+02,	 2.4459926102128171e+00 
6.3749922770673562e-01,	 0.0000000000000000e+00,	 3.8089312030636438e-02,	 1.5795913553706421e+03,	 -3.1881382202776365e-03,	 1.1161588194691644e+03,	 1.2230918188105505e+04,	 6.4111059069003977e+02,	 2.4638360031983169e+00 
7.1718663117007753e-01,	 0.0000000000000000e+00,	 3.7380410099983885e-02,	 1.5849087460245073e+03,	 -3.5824164043352091e-03,	 1.1078023747366535e+03,	 1.1913415559787009e+04,	 6.3870615223659615e+02,	 2.4814364797936967e+00 
7.9687403463341955e-01,	 0.0000000000000000e+00,	 3.6694111550033492e-02,	 1.5900975636678234e+03,	 -3.0792062507244422e-03,	 1.0996213311635709e+03,	 1.1608322640385471e+04,	 6.3634338164873736e+02,	 2.4988042769470358e+00 
8.7656143809676146e-01,	 0.0000000000000000e+00,	 3.6029152137978041e-02,	 1.5951640742522200e+03,	 -2.9988182311444511e-03,	 1.0916066339790955e+03,	 1.1314885042096277e+04,	 6.3402011520713108e+02,	 2.5159518381114876e+00 
9.5624884156010337e-01,	 0.0000000000000000e+00,	 3.5384621553321928e-02,	 1.6001131682090568e+03,	 -3.2961917417909659e-03,	 1.0837530121130469e+03,	 1.1032522201790598e+04,	 6.3173525246210113e+02,	 2.5328856700274858e+00 
1.0359362450234453e+00,	 0.0000000000000000e+00,	 3.4759624836992672e-02,	 1.6049495733373535e+03,	 -3.2234869592534521e-03,	 1.0760550406670859e+03,	 1.0760674736349025e+04,	 6.2948762482729705e+02,	 2.5496125897326674e+00 
1.1156236484867874e+00,	 0.0000000000000000e+00,	 3.4153232339329417e-02,	 1.6096780301163153e+03,	 -3.1201523367792028e-03,	 1.0685064364104974e+03,	 1.0498781387080691e+04,	 6.2727578825011267e+02,	 2.5661408590466990e+00 
1.1953110519501293e+00,	 0.0000000000000000e+00,	 3.3564674542045543e-02,	 1.6143028752942569e+03,	 -3.0036985948285189e-03,	 1.0611025840427228e+03,	 1.0246363292439632e+04,	 6.2509876321453078e+02,	 2.5824765145840334e+00 
1.2749984554134712e+00,	 0.0000000000000000e+00,	 3.2993113424832139e-02,	 1.6188289833062659e+03,	 -2.1672692226348822e-03,	 1.0538376649128097e+03,	 1.0002923652291423e+04,	 6.2295519489699996e+02,	 2.5986282746632776e+00 
1.3546858588768131e+00,	 0.0000000000000000e+00,	 3.2437171767846523e-02,	 1.6232641937288115e+03,	 -1.0910231953720206e-03,	 1.0466997784089810e+03,	 9.7677615766031504e+03,	 6.2084190047364359e+02,	 2.6146176546569770e+00 
1.4343732623401551e+00,	 0.0000000000000000e+00,	 3.1895513505676418e-02,	 1.6276167906419935e+03,	 -1.7946741260250754e-03,	 1.0396763324726826e+03,	 9.5402047084123551e+03,	 6.1875544311212752e+02,	 2.6304686427591313e+00 
1.5140606658034972e+00,	 0.0000000000000000e+00,	 3.1367080228130173e-02,	 1.6318944084376644e+03,	 -2.5342374990799943e-03,	 1.0327545087598389e+03,	 9.3196828150445126e+03,	 6.1669226808546216e+02,	 2.6462053975573467e+00 
1.5937480692668391e+00,	 0.0000000000000000e+00,	 3.0851253944099502e-02,	 1.6361008549184992e+03,	 -1.1558052036537703e-03,	 1.0259258338059376e+03,	 9.1058129305147613e+03,	 6.1465007155079979e+02,	 2.6618411526267698e+00 
1.6734354727301810e+00,	 0.0000000000000000e+00,	 3.0346041588589480e-02,	 1.6402343338214359e+03,	 4.8785658446715008e-03,	 1.0191938942711530e+03,	 8.8979262008361220e+03,	 6.1263014126213784e+02,	 2.6773647317604841e+00 
1.7531228761935229e+00,	 0.0000000000000000e+00,	 2.9847972318486113e-02,	 1.6442665530927306e+03,	 1.1532105062320941e-02,	 1.0126132818868030e+03,	 8.6953764802015794e+03,	 6.1064915898246272e+02,	 2.6926534311011685e+00 
1.8328102796568648e+00,	 0.0000000000000000e+00,	 2.9373512051716621e-02,	 1.6480341841357417e+03,	 -1.7912510528286574e-02,	 1.0064548976529352e+03,	 8.5051138448269685e+03,	 6.0878944245588741e+02,	 2.7070676153397701e+00 
1.9124976831202067e+00,	 0.0000000000000000e+00,	 2.8973356029356141e-02,	 1.6512439703654732e+03,	 -1.0771682187037634e-01,	 1.0011988351335124e+03,	 8.3454368705517081e+03,	 6.0719770496729143e+02,	 2.7194502883831024e+00 
1.9921850865835489e+00,	 0.0000000000000000e+00,	 2.8695091789234628e-02,	 1.6537522991406911e+03,	 -1.9093082775868692e-01,	 9.9708485049401611e+02,	 8.2313235610020529e+03,	 6.0594891534703618e+02,	 2.7291942741003834e+00 
2.0718724900468906e+00,	 0.0000000000000000e+00,	 2.8469975713699198e-02,	 1.6557198035454871e+03,	 -1.8305489969509836e-01,	 9.9386211125530167e+02,	 8.1403516959631843e+03,	 6.0496886041285893e+02,	 2.7368678323951081e+00 
2.1515598935102327e+00,	 0.0000000000000000e+00,	 2.8156050144415537e-02,	 1.6578555993742270e+03,	 -5.3289880431408054e-01,	 9.9036301009556792e+02,	 8.0222479068875919e+03,	 6.0390296117694072e+02,	 2.7452352308231309e+00 
2.2312472969735748e+00,	 0.0000000000000000e+00,	 2.7770447702980525e-02,	 1.6606254365345244e+03,	 -8.3177902709891904e-01,	 9.8582336318129092e+02,	 7.8761127592219391e+03,	 6.0251727984047341e+02,	 2.7561460897622241e+00 
2.3109347004369165e+00,	 0.0000000000000000e+00,	 2.7216553492130549e-02,	 1.6656055552877565e+03,	 5.8829413264873009e-01,	 9.7764369333767900e+02,	 7.6549731006243674e+03,	 6.0001244057285646e+02,	 2.7759518745822547e+00 
2.3906221039002586e+00,	 0.0000000000000000e+00,	 2.6258530366603670e-02,	 1.6745848074919224e+03,	 2.7834182075770060e+00,	 9.6280579128685508e+02,	 7.2734263785162657e+03,	 5.9544177486035562e+02,	 2.8123440299737368e+00 
2.4703095073636003e+00,	 0.0000000000000000e+00,	 2.4851947952791942e-02,	 1.6873870287260474e+03,	 3.0926340775969163e+00,	 9.4151625477059019e+02,	 6.7315983476145520e+03,	 5.8882177850836570e+02,	 2.8657055910533638e+00 
2.5499969108269425e+00,	 0.0000000000000000e+00,	 2.3268188740865330e-02,	 1.7019080121058580e+03,	 1.5497305487482667e+00,	 9.1717412142929436e+02,	 6.1396598047142206e+03,	 5.8116018018662430e+02,	 2.9284675304823291e+00 
2.6296843142902846e+00,	 0.0000000000000000e+00,	 2.1765675381051099e-02,	 1.7161604221597427e+03,	 6.9542526983821773e-01,	 8.9304039891896252e+02,	 5.5920776195522994e+03,	 5.7346313744519603e+02,	 2.9926257696457683e+00 
2.7093717177536263e+00,	 0.0000000000000000e+00,	 2.0376315654107288e-02,	 1.7297434829741906e+03,	 7.7406624957600290e-01,	 8.6982377663119371e+02,	 5.0990218403638146e+03,	 5.6595980857688244e+02,	 3.0563012248561128e+00 
2.7890591212169684e+00,	 0.0000000000000000e+00,	 1.9047282320179576e-02,	 1.7431504657035039e+03,	 9.2316485318928621e-01,	 8.4672367066270340e+02,	 4.6398576572000811e+03,	 5.5839407831157769e+02,	 3.1217213395713337e+00 
2.8687465246803101e+00,	 0.0000000000000000e+00,	 1.7787405985261958e-02,	 1.7561880993114466e+03,	 6.0108376938635288e-01,	 8.2388818997380758e+02,	 4.2160993150255599e+03,	 5.5081288663444707e+02,	 3.1883571441244727e+00 
2.9484339281436522e+00,	 0.0000000000000000e+00,	 1.6645133850213725e-02,	 1.7684007052126717e+03,	 2.2623463655891207e-01,	 8.0230436855136486e+02,	 3.8419913811142947e+03,	 5.4355003999037751e+02,	 3.2534276323763618e+00 
3.0281213316069944e+00,	 0.0000000000000000e+00,	 1.5623766988996233e-02,	 1.7798392365738764e+03,	 1.9475691504702386e-01,	 7.8224086364182835e+02,	 3.5160592930707840e+03,	 5.3671063781937573e+02,	 3.3161989381481032e+00 
3.1078087350703361e+00,	 0.0000000000000000e+00,	 1.4693074865679044e-02,	 1.7905881982884778e+03,	 3.1736881231910630e-01,	 7.6327220679512880e+02,	 3.2264287397465705e+03,	 5.3016332075904359e+02,	 3.3774275893898626e+00 
3.1874961385336782e+00,	 0.0000000000000000e+00,	 1.3833255013180088e-02,	 1.8007123217708572e+03,	 3.2258566480058448e-01,	 7.4509680937468249e+02,	 2.9652889847065676e+03,	 5.2381303961991046e+02,	 3.4377005046915818e+00 
3.2671835419970199e+00,	 0.0000000000000000e+00,	 1.3042761521256729e-02,	 1.8102665278091217e+03,	 2.0413367773383229e-01,	 7.2777100040596588e+02,	 2.7308273087334078e+03,	 5.1768708035728059e+02,	 3.4968354591141799e+00 
3.3468709454603620e+00,	 0.0000000000000000e+00,	 1.2322679190811267e-02,	 1.8192797018875194e+03,	 1.0159547604434049e-01,	 7.1142589592715774e+02,	 2.5221142105691556e+03,	 5.1184066653757390e+02,	 3.5543867919504311e+00 
3.4265583489237041e+00,	 0.0000000000000000e+00,	 1.1666260237392666e-02,	 1.8277703529562600e+03,	 8.3991857793785485e-02,	 6.9601325735095725e+02,	 2.3360337304354925e+03,	 5.0626593899938672e+02,	 3.6102969093647053e+00 
3.5062457523870458e+00,	 0.0000000000000000e+00,	 1.1065504137336741e-02,	 1.8357614669787204e+03,	 1.0725143171802110e-01,	 6.8139503755339126e+02,	 2.1692025621934908e+03,	 5.0092122819537775e+02,	 3.6647707599161730e+00 
3.5859331558503880e+00,	 0.0000000000000000e+00,	 1.0518184572838929e-02,	 1.8432402580371865e+03,	 1.4221007389263374e-01,	 6.6761678418679480e+02,	 2.0202167681483061e+03,	 4.9583088682745182e+02,	 3.7174776975209731e+00 
3.6656205593137297e+00,	 0.0000000000000000e+00,	 1.0017810052513985e-02,	 1.8502550021830994e+03,	 1.6216969262519054e-01,	 6.5466132314870686e+02,	 1.8867719632935000e+03,	 4.9099638603066495e+02,	 3.7683678779142853e+00 
3.7453079627770718e+00,	 0.0000000000000000e+00,	 9.5586014215063887e-03,	 1.8568546983193621e+03,	 1.6538162088455799e-01,	 6.4245499141801088e+02,	 1.7667170394106697e+03,	 4.8639747009660880e+02,	 3.8175665373330308e+00 
3.8249953662404135e+00,	 0.0000000000000000e+00,	 9.1359471099975824e-03,	 1.8630772459753207e+03,	 1.6643907043715700e-01,	 6.3093157116292150e+02,	 1.6583102065974006e+03,	 4.8201558817023385e+02,	 3.8651805027346975e+00 
3.9046827697037556e+00,	 0.0000000000000000e+00,	 8.7463686172874894e-03,	 1.8689476942878625e+03,	 1.8565106207315862e-01,	 6.2004012996970971e+02,	 1.5601900824012450e+03,	 4.7783708554796829e+02,	 3.9112654920146990e+00 
3.9843701731670977e+00,	 0.0000000000000000e+00,	 8.3873334029572321e-03,	 1.8744793864809267e+03,	 2.2468366733298817e-01,	 6.0974586716869078e+02,	 1.4713049962077346e+03,	 4.7385382019295901e+02,	 3.9558178494444163e+00 
4.0640575766304394e+00,	 0.0000000000000000e+00,	 8.0570238922119605e-03,	 1.8796769798952450e+03,	 2.8346194201924169e-01,	 6.0004621232147576e+02,	 1.3908788002217982e+03,	 4.7006974848507559e+02,	 3.9987193545777719e+00 
4.1437449800937811e+00,	 0.0000000000000000e+00,	 7.7552070313402239e-03,	 1.8845215459864921e+03,	 4.0128146761798611e-01,	 5.9098354058375082e+02,	 1.3185564246147387e+03,	 4.6650644310855512e+02,	 4.0396475044429234e+00 
4.2234323835571237e+00,	 0.0000000000000000e+00,	 7.4840844750863047e-03,	 1.8889531332891675e+03,	 5.5799824414012811e-01,	 5.8268053269506049e+02,	 1.2545822157419252e+03,	 4.6321776613210426e+02,	 4.0778945753281386e+00 
4.3031197870204654e+00,	 0.0000000000000000e+00,	 7.2427804782279554e-03,	 1.8929671900661760e+03,	 1.0345206541449903e+00,	 5.7515760926574649e+02,	 1.1984560983254510e+03,	 4.6021777505559697e+02,	 4.1131993924486965e+00 
4.3828071904838071e+00,	 0.0000000000000000e+00,	 7.0356032026317825e-03,	 1.8964737100703583e+03,	 1.7649805343786751e+00,	 5.6859168550019126e+02,	 1.1508846034893218e+03,	 4.5758334203578806e+02,	 4.1445445171474686e+00 
4.4624945939471496e+00,	 0.0000000000000000e+00,	 6.8486035727430162e-03,	 1.8993021732916432e+03,	 2.6057478708090951e+00,	 5.6330377140250312e+02,	 1.1098764194975372e+03,	 4.5545060469129828e+02,	 4.1701645386028394e+00 
4.5421819974104913e+00,	 0.0000000000000000e+00,	 6.6616546029513758e-03,	 1.9013781974310300e+03,	 2.7313603490375686e+00,	 5.5943285463705888e+02,	 1.0721610282772099e+03,	 4.5388302189433017e+02,	 4.1891414032539211e+00 
4.6218694008738330e+00,	 0.0000000000000000e+00,	 6.4992944584531184e-03,	 1.9026299063661222e+03,	 1.8261057270905630e+00,	 5.5710649067847817e+02,	 1.0416801044588212e+03,	 4.5293831771541903e+02,	 4.2006399288369014e+00 
4.7015568043371756e+00,	 0.0000000000000000e+00,	 6.4282870835417017e-03,	 1.9026694027642263e+03,	 -7.8371399564997313e-01,	 5.5629947580699377e+02,	 1.0288068614526264e+03,	 4.5261013949929594e+02,	 4.2037714097078833e+00 
4.7812442078005173e+00,	 0.0000000000000000e+00,	 6.4780987196245438e-03,	 1.9014914472105193e+03,	 -2.8617434676027571e+00,	 5.5645011499197233e+02,	 1.0370596473018538e+03,	 4.5267141603332209e+02,	 4.2006045297333579e+00 
4.8609316112638590e+00,	 0.0000000000000000e+00,	 6.6516702964000279e-03,	 1.8993686303958436e+03,	 -4.1902957585951199e+00,	 5.5881582431591232e+02,	 1.0693733274954707e+03,	 4.5363264613388856e+02,	 4.1870294582902430e+00 
4.9406190147272007e+00,	 0.0000000000000000e+00,	 6.9407993997506441e-03,	 1.8962381258327873e+03,	 -3.4546897727123862e+00,	 5.6623588962360054e+02,	 1.1306724830312903e+03,	 4.5663442573558046e+02,	 4.1526463313944637e+00 
5.0203064181905432e+00,	 0.0000000000000000e+00,	 7.2255506446997344e-03,	 1.8919297075845122e+03,	 -3.0033184641585864e+00,	 5.7523628963831993e+02,	 1.1957686502246058e+03,	 4.6024925239949437e+02,	 4.1106684725902580e+00 
5.0999938216538849e+00,	 0.0000000000000000e+00,	 7.3888411164022925e-03,	 1.8880014117216833e+03,	 -4.3983229447021683e+00,	 5.8107141868616804e+02,	 1.2351957241929024e+03,	 4.6257771942995100e+02,	 4.0814904298645169e+00 
5.1796812251172266e+00,	 0.0000000000000000e+00,	 7.5317485203941041e-03,	 1.8848706457284070e+03,	 -4.9344073163957756e+00,	 5.8754089702765020e+02,	 1.2731039050128652e+03,	 4.6514569361332371e+02,	 4.0522295067887422e+00 
5.2593686285805692e+00,	 0.0000000000000000e+00,	 7.6418483735538681e-03,	 1.8831272481919709e+03,	 -4.4235847821836565e+00,	 5.9267150706656469e+02,	 1.3029939603248192e+03,	 4.6717218564708355e+02,	 4.0309172970484397e+00 
5.3390560320439109e+00,	 0.0000000000000000e+00,	 7.6987471980547876e-03,	 1.8826578771939464e+03,	 -2.5177906208187322e+00,	 5.9434298931677972e+02,	 1.3163977786612454e+03,	 4.6783049317451423e+02,	 4.0242343931323434e+00 
5.4187434355072526e+00,	 0.0000000000000000e+00,	 7.7049124345890830e-03,	 1.8832403987780972e+03,	 -8.5286863298473548e-01,	 5.9326239224039455e+02,	 1.3150566552681050e+03,	 4.6740500968690458e+02,	 4.0291407941052224e+00 
5.4984308389705943e+00,	 0.0000000000000000e+00,	 7.6659696053558504e-03,	 1.8847039809167059e+03,	 3.0154075328231056e-01,	 5.9052671876272893e+02,	 1.3023765946463441e+03,	 4.6632610684962913e+02,	 4.0416008826345946e+00 
5.5781182424339368e+00,	 0.0000000000000000e+00,	 7.5827551855658449e-03,	 1.8866265220807211e+03,	 8.4018542141871144e-01,	 5.8692726964174631e+02,	 1.2803870124072841e+03,	 4.6490273120751726e+02,	 4.0581106165229111e+00 
5.6578056458972785e+00,	 0.0000000000000000e+00,	 7.4837050372852324e-03,	 1.8884701875092615e+03,	 6.2117842269761359e-01,	 5.8360385158416238e+02,	 1.2565065266388353e+03,	 4.6358462961071717e+02,	 4.0736257611858404e+00 
5.7374930493606202e+00,	 0.0000000000000000e+00,	 7.4049011010661296e-03,	 1.8897522407592987e+03,	 6.7675606523818166e-01,	 5.8133176312470937e+02,	 1.2384351012125014e+03,	 4.6268133496361935e+02,	 4.0843496790020017e+00 
5.8171804528239628e+00,	 0.0000000000000000e+00,	 7.3328736926123825e-03,	 1.8908454999896730e+03,	 5.2322903791682152e-01,	 5.7928247895848153e+02,	 1.2220656438347437e+03,	 4.6186510344361989e+02,	 4.0939346971331965e+00 
5.8968678562873045e+00,	 0.0000000000000000e+00,	 7.2701839075202000e-03,	 1.8918469328143269e+03,	 3.2071914236392884e-01,	 5.7740451162215732e+02,	 1.2076901033623767e+03,	 4.6111583885515989e+02,	 4.1027585708107681e+00 
5.9765552597506462e+00,	 0.0000000000000000e+00,	 7.2172555370664006e-03,	 1.8927538409962442e+03,	 1.0530133795302565e-01,	 5.7570256714369793e+02,	 1.1953640373192236e+03,	 4.6043575002326207e+02,	 4.1107881910337811e+00 
6.0562426632139887e+00,	 0.0000000000000000e+00,	 7.1731053940856156e-03,	 1.8935853912924840e+03,	 -4.8354570145807352e-02,	 5.7413214347801318e+02,	 1.1848108195769000e+03,	 4.5980732397116276e+02,	 4.1182149417625036e+00 
6.1359300666773304e+00,	 0.0000000000000000e+00,	 7.1344935684115179e-03,	 1.8942967369016651e+03,	 -9.6187982187930787e-02,	 5.7265974283707715e+02,	 1.1754109768553055e+03,	 4.5921734200449771e+02,	 4.1250548837617993e+00 
6.2156174701406721e+00,	 0.0000000000000000e+00,	 7.0971442882236738e-03,	 1.8949296134315609e+03,	 -4.5741429234139597e-02,	 5.7134088626218693e+02,	 1.1665648227283884e+03,	 4.5868823992915685e+02,	 4.1311929302488775e+00 
6.2953048736040138e+00,	 0.0000000000000000e+00,	 7.0590701181084802e-03,	 1.8955816620103983e+03,	 5.5114894421929628e-02,	 5.7011206231633139e+02,	 1.1578109779430890e+03,	 4.5819470751977553e+02,	 4.1370658187487486e+00 
6.3749922770673564e+00,	 0.0000000000000000e+00,	 7.0184780819648410e-03,	 1.8962832203618304e+03,	 1.3832526636181497e-01,	 5.6879101857627620e+02,	 1.1484857620808850e+03,	 4.5766354326347113e+02,	 4.1434002190453363e+00 
6.4546796805306981e+00,	 0.0000000000000000e+00,	 6.9745045263109196e-03,	 1.8970411217567625e+03,	 1.3354950917409081e-01,	 5.6736343916688452e+02,	 1.1384255768056319e+03,	 4.5708884930929122e+02,	 4.1502677856269186e+00 
6.5343670839940398e+00,	 0.0000000000000000e+00,	 6.9296587576824446e-03,	 1.8978324290976798e+03,	 8.5997103023135013e-02,	 5.6587224763818404e+02,	 1.1281326833973646e+03,	 4.5648777473664171e+02,	 4.1574660616946213e+00 
6.6140544874573823e+00,	 0.0000000000000000e+00,	 6.8871882404373929e-03,	 1.8985962353533050e+03,	 6.9103286194883151e-02,	 5.6445239327208708e+02,	 1.1184052820887671e+03,	 4.5591471849783858e+02,	 4.1643670615996653e+00 
6.6937418909207240e+00,	 0.0000000000000000e+00,	 6.8463240178477033e-03,	 1.8993292091169269e+03,	 9.3699732546613901e-02,	 5.6310969357718477e+02,	 1.1091247336702095e+03,	 4.5537213861108955e+02,	 4.1709385585627494e+00 
6.7734292943840657e+00,	 0.0000000000000000e+00,	 6.8070220332473825e-03,	 1.9000393234742041e+03,	 1.3371984191912178e-01,	 5.6181454352776552e+02,	 1.1002213576566687e+03,	 4.5484816009918887e+02,	 4.1773046367062143e+00 
6.8531166978474083e+00,	 0.0000000000000000e+00,	 6.7697765860267965e-03,	 1.9007164540300764e+03,	 1.8269181465265727e-01,	 5.6058315229077891e+02,	 1.0918030804970813e+03,	 4.5434941608489368e+02,	 4.1833804457995818e+00 
6.9328041013107500e+00,	 0.0000000000000000e+00,	 6.7346955764616048e-03,	 1.9013522522513649e+03,	 2.2790678888555671e-01,	 5.5941966890215065e+02,	 1.0838910713066066e+03,	 4.5387767289094046e+02,	 4.1891293171570592e+00 
7.0124915047740917e+00,	 0.0000000000000000e+00,	 6.7012756819305689e-03,	 1.9019455078818332e+03,	 2.5722846945951305e-01,	 5.5833147090056400e+02,	 1.0764144769728384e+03,	 4.5343601054950875e+02,	 4.1945180378843991e+00 
7.0921789082374334e+00,	 0.0000000000000000e+00,	 6.6690586063806101e-03,	 1.9025014611093982e+03,	 2.4386612063648516e-01,	 5.5731754312382191e+02,	 1.0692941363403995e+03,	 4.5302410444493188e+02,	 4.1995590479010874e+00 
7.1718663117007759e+00,	 0.0000000000000000e+00,	 6.6388728896301808e-03,	 1.9030082402385324e+03,	 1.9817503200268793e-01,	 5.5637969865342654e+02,	 1.0626630158521612e+03,	 4.5264277332905118e+02,	 4.2042165758247574e+00 
7.2515537151641176e+00,	 0.0000000000000000e+00,	 6.6113916884223637e-03,	 1.9034645709215033e+03,	 1.3818933338116879e-01,	 5.5551770364600543e+02,	 1.0566246274392861e+03,	 4.5229199934051871e+02,	 4.2084860636781425e+00 
7.3312411186274593e+00,	 0.0000000000000000e+00,	 6.5868042174535308e-03,	 1.9038819150745180e+03,	 7.5031086366771860e-02,	 5.5472918638577084e+02,	 1.0512008629017000e+03,	 4.5197088743724294e+02,	 4.2123994475581030e+00 
7.4109285220908019e+00,	 0.0000000000000000e+00,	 6.5650074068520992e-03,	 1.9042569191855221e+03,	 1.7073499349712529e-02,	 5.5401192713222395e+02,	 1.0463675732692429e+03,	 4.5167859602048077e+02,	 4.2159556287137328e+00 
7.4906159255541436e+00,	 0.0000000000000000e+00,	 6.5456944420452653e-03,	 1.9045870404122393e+03,	 -3.1311652934696843e-02,	 5.5336248197531381e+02,	 1.0420663602329303e+03,	 4.5141377636549447e+02,	 4.2191602037584763e+00 
7.5703033290174853e+00,	 0.0000000000000000e+00,	 6.5286271749128702e-03,	 1.9048803070002380e+03,	 -6.5651323047299953e-02,	 5.5277860750785612e+02,	 1.0382526144735962e+03,	 4.5117556131743612e+02,	 4.2220378749445171e+00 
7.6499907324808269e+00,	 0.0000000000000000e+00,	 6.5135929011996881e-03,	 1.9051455956963712e+03,	 -8.2380434203989245e-02,	 5.5226014723421190e+02,	 1.0348901503668676e+03,	 4.5096392914126983e+02,	 4.2246075004386183e+00 
7.7296781359441695e+00,	 0.0000000000000000e+00,	 6.5001818478637487e-03,	 1.9053859699941534e+03,	 -8.4972938096428530e-02,	 5.5180942778707413e+02,	 1.0319165083516966e+03,	 4.5077986760581109e+02,	 4.2268657249686026e+00 
7.8093655394075112e+00,	 0.0000000000000000e+00,	 6.4882012528478770e-03,	 1.9056009431604341e+03,	 -8.6100411141853961e-02,	 5.5142847082960782e+02,	 1.0293034664459342e+03,	 4.5062423654217969e+02,	 4.2288026044227065e+00 
7.8890529428708529e+00,	 0.0000000000000000e+00,	 6.4781841259034679e-03,	 1.9057799708143984e+03,	 -9.1549791609357486e-02,	 5.5112409123260409e+02,	 1.0271470442443099e+03,	 4.5049985073002063e+02,	 4.2303676015099132e+00 
7.9687403463341955e+00,	 0.0000000000000000e+00,	 6.4711037202367164e-03,	 1.9059062412361204e+03,	 -1.4419921692648838e-01,	 5.5090209070903245e+02,	 1.0256111150555030e+03,	 4.5040910775776598e+02,	 4.2315002380372109e+00 
0.0000000000000000e+00,	 2.0000000000000000e-02,	 4.4593430499335722e-02,	 1.5326921139478968e+03,	 1.7587702431716279e+00,	 1.1886571042185942e+03,	 1.5249563440078668e+04,	 6.6160419266676786e+02,	 2.3166315147846026e+00 
7.9687403463341994e-02,	 2.0177253445608299e-02,	 4.3799340341214320e-02,	 1.5382117375230864e+03,	 3.0462908712069678e+00,	 1.1802344122565194e+03,	 1.4871876846995467e+04,	 6.5925599866964205e+02,	 2.3332586386435690e+00 
1.5937480692668390e-01,	 2.0460280712274799e-02,	 4.2880231700509044e-02,	 1.5446748399769938e+03,	 3.3250656411191537e+00,	 1.1703365217035666e+03,	 1.4437693529088872e+04,	 6.5648579382299965e+02,	 2.3529502592038463e+00 
2.3906221039002579e-01,	 2.0746794022574001e-02,	 4.2014426319655754e-02,	 1.5508779954188847e+03,	 3.2844478578984644e+00,	 1.1607976886146889e+03,	 1.4030879991031768e+04,	 6.5380497493125745e+02,	 2.3720857637680597e+00 
3.1874961385336781e-01,	 2.1036260121174599e-02,	 4.1173886385528921e-02,	 1.5569264445340386e+03,	 3.3343155038263070e+00,	 1.1514630320772676e+03,	 1.3639605165419829e+04,	 6.5117085355554093e+02,	 2.3909700601858237e+00 
3.9843701731670977e-01,	 2.1328205475897699e-02,	 4.0363069397574572e-02,	 1.5628149692079630e+03,	 3.3490419100254805e+00,	 1.1423409976021828e+03,	 1.3265080369604811e+04,	 6.4858639621608370e+02,	 2.4095765294250278e+00 
4.7812442078005168e-01,	 2.1622557919425800e-02,	 3.9579868144404992e-02,	 1.5685498467259815e+03,	 3.3725596609621329e+00,	 1.1334229763079722e+03,	 1.2906137651049250e+04,	 6.4604974541748788e+02,	 2.4279143882343215e+00 
5.5781182424339371e-01,	 2.1918919705713899e-02,	 3.8822528095905737e-02,	 1.5741410544585183e+03,	 3.3947033314916384e+00,	 1.1246974582130345e+03,	 1.2561730275887732e+04,	 6.4355817343083197e+02,	 2.4460022106079213e+00 
6.3749922770673562e-01,	 2.2217433566641302e-02,	 3.8089848390225327e-02,	 1.5795932887507452e+03,	 3.4153363855038843e+00,	 1.1161585727987469e+03,	 1.2231087716303240e+04,	 6.4111051984751123e+02,	 2.4638450502687093e+00 
7.1718663117007753e-01,	 2.2517546145557100e-02,	 3.7380924772137974e-02,	 1.5849107330855982e+03,	 3.4354237791623317e+00,	 1.1078021364903902e+03,	 1.1913577027483019e+04,	 6.3870608355586137e+02,	 2.4814456870971182e+00 
7.9687403463341955e-01,	 2.2818829877013599e-02,	 3.6694572840047526e-02,	 1.5900996676444622e+03,	 3.4566118242583586e+00,	 1.0996204772839292e+03,	 1.1608459557021250e+04,	 6.3634313458152030e+02,	 2.4988144576037681e+00 
8.7656143809676146e-01,	 2.3121014951851700e-02,	 3.6029625694030301e-02,	 1.5951662948662270e+03,	 3.4778791000509264e+00,	 1.0916061613065629e+03,	 1.1315028861971248e+04,	 6.3401997793976909e+02,	 2.5159618650937885e+00 
9.5624884156010337e-01,	 2.3423908217907199e-02,	 3.5385099890488929e-02,	 1.6001155458629419e+03,	 3.4985484758743217e+00,	 1.0837528714671803e+03,	 1.1032669910090704e+04,	 6.3173521146984831e+02,	 2.5328956522933788e+00 
1.0359362450234453e+00,	 2.3727488515571299e-02,	 3.4760080102320033e-02,	 1.6049520720584462e+03,	 3.5193491412236297e+00,	 1.0760547884480306e+03,	 1.0760813152386896e+04,	 6.2948755105375517e+02,	 2.5496229877664018e+00 
1.1156236484867874e+00,	 2.4031522113622701e-02,	 3.4153673269238294e-02,	 1.6096806081496979e+03,	 3.5401666472888191e+00,	 1.0685061635960822e+03,	 1.0498914249322259e+04,	 6.2727570817109654e+02,	 2.5661515026274224e+00 
1.1953110519501293e+00,	 2.4335858784797500e-02,	 3.3565054087420797e-02,	 1.6143053973789879e+03,	 3.5608452833919575e+00,	 1.0611018004427258e+03,	 1.0246471590314921e+04,	 6.2509853240391601e+02,	 2.5824877854598411e+00 
1.2749984554134712e+00,	 2.4640150388487801e-02,	 3.2993264281777797e-02,	 1.6188314212170512e+03,	 3.5832314037798412e+00,	 1.0538353027097990e+03,	 1.0002946967525659e+04,	 6.2295449671192330e+02,	 2.5986414664964954e+00 
1.3546858588768131e+00,	 2.4944288949509199e-02,	 3.2437116771065894e-02,	 1.6232665230598718e+03,	 3.6082990494013298e+00,	 1.0466956330887419e+03,	 9.7677063315956511e+03,	 6.2084067109006264e+02,	 2.6146330435826317e+00 
1.4343732623401551e+00,	 2.5248309841541500e-02,	 3.1895419586458064e-02,	 1.6276190997519232e+03,	 3.6369051007126352e+00,	 1.0396700215697635e+03,	 9.5401187069263178e+03,	 6.1875356516639772e+02,	 2.6304869251629182e+00 
1.5140606658034972e+00,	 2.5551778924154899e-02,	 3.1367000617699183e-02,	 1.6318967194638230e+03,	 3.6695146179096900e+00,	 1.0327463114363927e+03,	 9.3195851881559629e+03,	 6.1668982063256965e+02,	 2.6462263370190868e+00 
1.5937480692668391e+00,	 2.5854579455136702e-02,	 3.0851152934260224e-02,	 1.6361034568383477e+03,	 3.7054835181102792e+00,	 1.0259170525492934e+03,	 9.1057051776766493e+03,	 6.1464744104311774e+02,	 2.6618636045845983e+00 
1.6734354727301810e+00,	 2.6156390026075501e-02,	 3.0346587253873798e-02,	 1.6402409325309382e+03,	 3.7489363591864175e+00,	 1.0191837442730822e+03,	 8.8979975835947153e+03,	 6.1262709070901519e+02,	 2.6773958280451229e+00 
1.7531228761935229e+00,	 2.6457341523360600e-02,	 2.9854769162311348e-02,	 1.6442867026871404e+03,	 3.7442221942597120e+00,	 1.0125856188206358e+03,	 8.6971189529372314e+03,	 6.1064081791891829e+02,	 2.6927301900467060e+00 
1.8328102796568648e+00,	 2.6757180691291300e-02,	 2.9396147531470830e-02,	 1.6480766864299590e+03,	 3.4887496336952042e+00,	 1.0063903591365214e+03,	 8.5111221510472369e+03,	 6.0876992295361958e+02,	 2.7072302965118675e+00 
1.9124976831202067e+00,	 2.7055829796204300e-02,	 2.9010301013514102e-02,	 1.6513013601644527e+03,	 2.8363592358159160e+00,	 1.0011091589081497e+03,	 8.3553299975045866e+03,	 6.0717051135916040e+02,	 2.7196706118082994e+00 
1.9921850865835489e+00,	 2.7353057767915901e-02,	 2.8720237134930836e-02,	 1.6537840283689416e+03,	 2.0767793902144054e+00,	 9.9703623383056197e+02,	 8.2381349218314062e+03,	 6.0593414249516661e+02,	 2.7293153106398109e+00 
2.0718724900468906e+00,	 2.7648679970332098e-02,	 2.8476302200809916e-02,	 1.6558183574256175e+03,	 1.9851180743335202e+00,	 9.9369648265418073e+02,	 8.1408037100165620e+03,	 6.0491844883165925e+02,	 2.7372607837912106e+00 
2.1515598935102327e+00,	 2.7942599809834101e-02,	 2.8199931899402612e-02,	 1.6582085008718657e+03,	 2.4344228517695035e+00,	 9.8976902470409561e+02,	 8.0299317723175727e+03,	 6.0372183398687525e+02,	 2.7466462110763232e+00 
2.2312472969735748e+00,	 2.8234839046216400e-02,	 2.7786075041439390e-02,	 1.6618204009488095e+03,	 4.1253302749205805e+00,	 9.8381784530156381e+02,	 7.8645130538174353e+03,	 6.0190409982897654e+02,	 2.7609473366387509e+00 
2.3109347004369165e+00,	 2.8525069919092500e-02,	 2.7058585770795934e-02,	 1.6678616029800712e+03,	 8.1760645971045864e+00,	 9.7381651473644615e+02,	 7.5807498691928749e+03,	 5.9883685555064892e+02,	 2.7852020586938564e+00 
2.3906221039002586e+00,	 2.8813389568642898e-02,	 2.5993913511591027e-02,	 1.6769089366481885e+03,	 1.3508019670381209e+01,	 9.5874660253238335e+02,	 7.1697736473856967e+03,	 5.9418525797420284e+02,	 2.8222903865358964e+00 
2.4703095073636003e+00,	 2.9099681263052402e-02,	 2.4686432914841717e-02,	 1.6886520774008461e+03,	 1.7458965904166824e+01,	 9.3907158986748436e+02,	 6.6694032998740249e+03,	 5.8805683815393365e+02,	 2.8717331718711736e+00 