TITLE = "Final State"
VARIABLES = "X", "Y", "rho", "u", "v", "T", "p", "c", "M"
ZONE I=100, J=50, DATAPACKING=POINT
0.002070,	 0.000330,	 0.044550,	 1532.899999,	 0.000055,	 1131.397540,	 14500.817116,	 645.472239,	 2.374850 
0.006210,	 0.000334,	 0.044550,	 1532.902895,	 0.000465,	 1131.393716,	 14500.618952,	 645.471148,	 2.374859 
0.010351,	 0.000340,	 0.044546,	 1532.925962,	 0.003750,	 1131.363328,	 14499.040321,	 645.462480,	 2.374927 
0.014491,	 0.000346,	 0.044529,	 1533.029396,	 0.017278,	 1131.227104,	 14491.960629,	 645.423620,	 2.375230 
0.018631,	 0.000352,	 0.044478,	 1533.356301,	 0.056211,	 1130.796525,	 14469.586739,	 645.300774,	 2.376189 
0.022771,	 0.000359,	 0.044350,	 1534.161171,	 0.142804,	 1129.735926,	 14414.540774,	 644.998082,	 2.378552 
0.026911,	 0.000365,	 0.044090,	 1535.800793,	 0.301101,	 1127.573181,	 14302.639011,	 644.380400,	 2.383376 
0.031052,	 0.000372,	 0.043636,	 1538.672413,	 0.548204,	 1123.778308,	 14107.539393,	 643.295148,	 2.391861 
0.035192,	 0.000380,	 0.042934,	 1543.121217,	 0.887407,	 1117.881392,	 13807.754155,	 641.605114,	 2.405095 
0.039332,	 0.000387,	 0.041955,	 1549.358872,	 1.306992,	 1109.576848,	 13392.875631,	 639.217486,	 2.423838 
0.043472,	 0.000395,	 0.040702,	 1557.427300,	 1.784887,	 1098.771436,	 12866.197670,	 636.097420,	 2.448412 
0.047612,	 0.000402,	 0.039202,	 1567.208595,	 2.294930,	 1085.575589,	 12243.418501,	 632.266233,	 2.478719 
0.051753,	 0.000410,	 0.037506,	 1578.472303,	 2.813300,	 1070.247813,	 11548.188937,	 627.786725,	 2.514349 
0.055893,	 0.000418,	 0.035670,	 1590.926676,	 3.320478,	 1053.133795,	 10807.343858,	 622.747121,	 2.554697 
0.060033,	 0.000426,	 0.033753,	 1604.268262,	 3.802582,	 1034.605275,	 10046.480990,	 617.244598,	 2.599088 
0.064173,	 0.000433,	 0.031807,	 1618.198256,	 4.247931,	 1015.041512,	 9288.363235,	 611.380884,	 2.646801 
0.068313,	 0.000441,	 0.029878,	 1632.452399,	 4.650200,	 994.789143,	 8550.861028,	 605.250939,	 2.697161 
0.072454,	 0.000449,	 0.028000,	 1646.803673,	 5.005884,	 974.158170,	 7847.144886,	 598.941895,	 2.749534 
0.076594,	 0.000457,	 0.026198,	 1661.071164,	 5.314731,	 953.402232,	 7185.668897,	 592.526851,	 2.803383 
0.080734,	 0.000465,	 0.024488,	 1675.113483,	 5.578026,	 932.727894,	 6571.184123,	 586.067227,	 2.858243 
0.084874,	 0.000473,	 0.022882,	 1688.824547,	 5.798200,	 912.299203,	 6005.535874,	 579.613645,	 2.913725 
0.089014,	 0.000481,	 0.021382,	 1702.126535,	 5.977911,	 892.245407,	 5488.529792,	 573.207830,	 2.969494 
0.093155,	 0.000489,	 0.019989,	 1714.967702,	 6.120808,	 872.661752,	 5018.418574,	 566.882336,	 3.025281 
0.097295,	 0.000497,	 0.018701,	 1727.311789,	 6.229526,	 853.623454,	 4592.722628,	 560.664583,	 3.080849 
0.101435,	 0.000505,	 0.017515,	 1739.139707,	 6.307369,	 835.181503,	 4208.319407,	 554.575127,	 3.136006 
0.105575,	 0.000513,	 0.016423,	 1750.441526,	 6.356799,	 817.373709,	 3861.949854,	 548.630927,	 3.190584 
0.109715,	 0.000521,	 0.015421,	 1761.216800,	 6.380413,	 800.223229,	 3550.264500,	 542.844611,	 3.244443 
0.113855,	 0.000529,	 0.014503,	 1771.471078,	 6.380610,	 783.743299,	 3270.011264,	 537.225816,	 3.297464 
0.117996,	 0.000536,	 0.013661,	 1781.213417,	 6.359210,	 767.940722,	 3018.143277,	 531.782207,	 3.349538 
0.122136,	 0.000544,	 0.012890,	 1790.456309,	 6.317922,	 752.815642,	 2791.810012,	 526.519270,	 3.400573 
0.126276,	 0.000552,	 0.012185,	 1799.214222,	 6.258249,	 738.363683,	 2588.395576,	 521.440929,	 3.450487 
0.130416,	 0.000559,	 0.011540,	 1807.503249,	 6.182141,	 724.576371,	 2405.513796,	 516.549609,	 3.499207 
0.134556,	 0.000566,	 0.010949,	 1815.339632,	 6.090619,	 711.443545,	 2241.025127,	 511.847016,	 3.546665 
0.138697,	 0.000574,	 0.010409,	 1822.740062,	 5.984448,	 698.952839,	 2092.998281,	 507.333908,	 3.592801 
0.142837,	 0.000581,	 0.009914,	 1829.720427,	 5.864291,	 687.091840,	 1959.726214,	 503.010845,	 3.637555 
0.146977,	 0.000588,	 0.009462,	 1836.296058,	 5.730673,	 675.847757,	 1839.693611,	 498.878045,	 3.680870 
0.151117,	 0.000595,	 0.009048,	 1842.482007,	 5.584165,	 665.207007,	 1731.546475,	 494.935222,	 3.722690 
0.155257,	 0.000602,	 0.008670,	 1848.293097,	 5.425611,	 655.155200,	 1634.070791,	 491.181555,	 3.762969 
0.159398,	 0.000609,	 0.008324,	 1853.742711,	 5.255428,	 645.679318,	 1546.210421,	 487.616498,	 3.801656 
0.163538,	 0.000615,	 0.008008,	 1858.843829,	 5.074109,	 636.766014,	 1467.023186,	 484.239142,	 3.838704 
0.167678,	 0.000622,	 0.007720,	 1863.609114,	 4.882383,	 628.401532,	 1395.665211,	 481.048175,	 3.874073 
0.171818,	 0.000628,	 0.007457,	 1868.050368,	 4.680886,	 620.572727,	 1331.394132,	 478.042266,	 3.907722 
0.175959,	 0.000635,	 0.007218,	 1872.178967,	 4.470367,	 613.266382,	 1273.548693,	 475.219806,	 3.939618 
0.180099,	 0.000641,	 0.007001,	 1876.005947,	 4.251737,	 606.469114,	 1221.538384,	 472.578868,	 3.969731 
0.184239,	 0.000647,	 0.006804,	 1879.541832,	 4.025851,	 600.167744,	 1174.841536,	 470.117349,	 3.998036 
0.188379,	 0.000652,	 0.006626,	 1882.797239,	 3.793903,	 594.348269,	 1132.984818,	 467.832571,	 4.024519 
0.192519,	 0.000658,	 0.006465,	 1885.782532,	 3.557119,	 588.996529,	 1095.546655,	 465.721536,	 4.049170 
0.196660,	 0.000663,	 0.006321,	 1888.508104,	 3.316848,	 584.097749,	 1062.147259,	 463.780751,	 4.071991 
0.200800,	 0.000669,	 0.006191,	 1890.984595,	 3.074695,	 579.636191,	 1032.439793,	 462.006090,	 4.092992 
0.204940,	 0.000674,	 0.006076,	 1893.222738,	 2.832281,	 575.595461,	 1006.110953,	 460.392917,	 4.112194 
0.209080,	 0.000679,	 0.005973,	 1895.233591,	 2.591313,	 571.958141,	 982.873774,	 458.935948,	 4.129629 
0.213220,	 0.000683,	 0.005883,	 1897.028595,	 2.353514,	 568.705711,	 962.463955,	 457.629222,	 4.145343 
0.217361,	 0.000688,	 0.005803,	 1898.619803,	 2.120953,	 565.818171,	 944.631510,	 456.465962,	 4.159392 
0.221501,	 0.000692,	 0.005734,	 1900.019581,	 1.895647,	 563.274613,	 929.144502,	 455.438817,	 4.171846 
0.225641,	 0.000696,	 0.005674,	 1901.240465,	 1.679074,	 561.053527,	 915.790356,	 454.539994,	 4.182781 
0.229781,	 0.000700,	 0.005622,	 1902.295515,	 1.472900,	 559.132183,	 904.365118,	 453.761034,	 4.192286 
0.233921,	 0.000704,	 0.005578,	 1903.198131,	 1.278964,	 557.486997,	 894.673224,	 453.092971,	 4.200459 
0.238061,	 0.000708,	 0.005541,	 1903.961384,	 1.097625,	 556.094797,	 886.539331,	 452.526867,	 4.207400 
0.242202,	 0.000711,	 0.005511,	 1904.598744,	 0.930185,	 554.931506,	 879.789870,	 452.053301,	 4.213218 
0.246342,	 0.000715,	 0.005486,	 1905.123613,	 0.777814,	 553.973038,	 874.259153,	 451.662743,	 4.218023 
0.250482,	 0.000718,	 0.005465,	 1905.548957,	 0.640582,	 553.195990,	 869.795492,	 451.345862,	 4.221927 
0.254622,	 0.000721,	 0.005449,	 1905.887460,	 0.518514,	 552.577386,	 866.255282,	 451.093436,	 4.225039 
0.258763,	 0.000724,	 0.005437,	 1906.151393,	 0.411339,	 552.094942,	 863.504050,	 450.896472,	 4.227470 
0.262903,	 0.000727,	 0.005427,	 1906.352516,	 0.319492,	 551.727247,	 861.411218,	 450.746299,	 4.229325 
0.267043,	 0.000730,	 0.005420,	 1906.501699,	 0.242176,	 551.454481,	 859.860686,	 450.634864,	 4.230702 
0.271183,	 0.000732,	 0.005415,	 1906.608981,	 0.178487,	 551.258322,	 858.746538,	 450.554709,	 4.231693 
0.275323,	 0.000735,	 0.005411,	 1906.683492,	 0.127432,	 551.122096,	 857.973119,	 450.499035,	 4.232381 
0.279463,	 0.000737,	 0.005409,	 1906.733370,	 0.087901,	 551.030925,	 857.455460,	 450.461771,	 4.232842 
0.283604,	 0.000740,	 0.005407,	 1906.765730,	 0.058665,	 550.971803,	 857.119612,	 450.437605,	 4.233141 
0.287744,	 0.000742,	 0.005406,	 1906.786650,	 0.038384,	 550.933616,	 856.902790,	 450.421995,	 4.233334 
0.291884,	 0.000744,	 0.005406,	 1906.801119,	 0.025766,	 550.907230,	 856.752768,	 450.411209,	 4.233467 
0.296024,	 0.000746,	 0.005405,	 1906.813164,	 0.019444,	 550.885279,	 856.627908,	 450.402235,	 4.233578 
0.300165,	 0.000747,	 0.005404,	 1906.825852,	 0.018071,	 550.862154,	 856.496625,	 450.392782,	 4.233695 
0.304305,	 0.000749,	 0.005404,	 1906.841318,	 0.020353,	 550.833950,	 856.336853,	 450.381252,	 4.233838 
0.308445,	 0.000751,	 0.005403,	 1906.860831,	 0.025058,	 550.798343,	 856.135444,	 450.366695,	 4.234018 
0.312585,	 0.000753,	 0.005402,	 1906.884855,	 0.031019,	 550.754484,	 855.887608,	 450.348763,	 4.234240 
0.316725,	 0.000754,	 0.005400,	 1906.913094,	 0.037116,	 550.702918,	 855.596462,	 450.327680,	 4.234501 
0.320866,	 0.000755,	 0.005399,	 1906.944558,	 0.042311,	 550.645453,	 855.272263,	 450.304184,	 4.234792 
0.325006,	 0.000757,	 0.005397,	 1906.977642,	 0.045690,	 550.585027,	 854.931468,	 450.279476,	 4.235098 
0.329146,	 0.000758,	 0.005396,	 1907.010127,	 0.046361,	 550.525696,	 854.596855,	 450.255214,	 4.235398 
0.333286,	 0.000759,	 0.005394,	 1907.039204,	 0.043429,	 550.472601,	 854.297426,	 450.233501,	 4.235667 
0.337426,	 0.000760,	 0.005393,	 1907.061529,	 0.036074,	 550.431866,	 854.067612,	 450.216842,	 4.235873 
0.341566,	 0.000761,	 0.005393,	 1907.073235,	 0.023519,	 550.410566,	 853.947142,	 450.208131,	 4.235981 
0.345707,	 0.000762,	 0.005393,	 1907.069954,	 0.005009,	 550.416696,	 853.980916,	 450.210638,	 4.235950 
0.349847,	 0.000763,	 0.005394,	 1907.046809,	 -0.020200,	 550.459179,	 854.219073,	 450.228013,	 4.235736 
0.353987,	 0.000764,	 0.005396,	 1906.998453,	 -0.052804,	 550.547799,	 854.716677,	 450.264253,	 4.235287 
0.358127,	 0.000764,	 0.005400,	 1906.919075,	 -0.093465,	 550.693184,	 855.533712,	 450.323700,	 4.234552 
0.362267,	 0.000765,	 0.005406,	 1906.802282,	 -0.142951,	 550.907012,	 856.736456,	 450.411120,	 4.233471 
0.366408,	 0.000765,	 0.005413,	 1906.641103,	 -0.202081,	 551.202012,	 858.397723,	 450.531697,	 4.231980 
0.370548,	 0.000766,	 0.005423,	 1906.428153,	 -0.271470,	 551.591656,	 860.595245,	 450.690908,	 4.230012 
0.374688,	 0.000766,	 0.005436,	 1906.155594,	 -0.351691,	 552.090221,	 863.412419,	 450.894545,	 4.227498 
0.378828,	 0.000767,	 0.005452,	 1905.815108,	 -0.443325,	 552.712827,	 866.939045,	 451.148716,	 4.224361 
0.382969,	 0.000767,	 0.005472,	 1905.398044,	 -0.546773,	 553.475169,	 871.270233,	 451.459737,	 4.220527 
0.387109,	 0.000768,	 0.005495,	 1904.895688,	 -0.661986,	 554.393003,	 876.503746,	 451.833912,	 4.215920 
0.391249,	 0.000768,	 0.005524,	 1904.299176,	 -0.788912,	 555.482301,	 882.742157,	 452.277587,	 4.210466 
0.395389,	 0.000768,	 0.005557,	 1903.598825,	 -0.928543,	 556.760438,	 890.102194,	 452.797622,	 4.204084 
0.399529,	 0.000768,	 0.005596,	 1902.786281,	 -1.079303,	 558.242294,	 898.688609,	 453.399798,	 4.196708 
0.403670,	 0.000768,	 0.005640,	 1901.853577,	 -1.240132,	 559.941929,	 908.608253,	 454.089488,	 4.188280 
0.407810,	 0.000768,	 0.005691,	 1900.793795,	 -1.409398,	 561.871384,	 919.962737,	 454.871169,	 4.178753 
0.411950,	 0.000768,	 0.005749,	 1899.601553,	 -1.584781,	 564.039787,	 932.843478,	 455.748055,	 4.168097 
0.002070,	 0.000989,	 0.044550,	 1532.900000,	 0.000078,	 1131.396194,	 14500.813087,	 645.471855,	 2.374852 
0.006210,	 0.001002,	 0.044550,	 1532.902962,	 0.001389,	 1131.392295,	 14500.610605,	 645.470743,	 2.374860 
0.010351,	 0.001019,	 0.044546,	 1532.926830,	 0.011371,	 1131.360868,	 14498.978365,	 645.461778,	 2.374930 
0.014491,	 0.001037,	 0.044529,	 1533.033220,	 0.052234,	 1131.220768,	 14491.701587,	 645.421812,	 2.375242 
0.018631,	 0.001056,	 0.044476,	 1533.367647,	 0.169443,	 1130.780286,	 14468.828410,	 645.296141,	 2.376223 
0.022771,	 0.001076,	 0.044346,	 1534.187069,	 0.429492,	 1129.700453,	 14412.821122,	 644.987956,	 2.378629 
0.026911,	 0.001096,	 0.044083,	 1535.849298,	 0.904037,	 1127.507592,	 14299.433648,	 644.361659,	 2.383521 
0.031052,	 0.001117,	 0.043624,	 1538.750055,	 1.644213,	 1123.673304,	 14102.430400,	 643.265093,	 2.392095 
0.035192,	 0.001139,	 0.042917,	 1543.230688,	 2.660483,	 1117.732068,	 13800.578525,	 641.562261,	 2.405430 
0.039332,	 0.001161,	 0.041934,	 1549.498162,	 3.918865,	 1109.383790,	 13383.775015,	 639.161874,	 2.424273 
0.043472,	 0.001184,	 0.040677,	 1557.590392,	 5.353791,	 1098.540028,	 12855.564666,	 636.030433,	 2.448939 
0.047612,	 0.001206,	 0.039175,	 1567.386973,	 6.886141,	 1085.314455,	 12231.793868,	 632.190182,	 2.479321 
0.051753,	 0.001230,	 0.037477,	 1578.656736,	 8.443193,	 1069.966896,	 11536.162873,	 627.704329,	 2.515005 
0.055893,	 0.001253,	 0.035641,	 1591.109140,	 9.967112,	 1052.842076,	 10795.446785,	 622.660864,	 2.555388 
0.060033,	 0.001277,	 0.033724,	 1604.442213,	 11.415867,	 1034.310540,	 10035.138010,	 617.156672,	 2.599798 
0.064173,	 0.001300,	 0.031780,	 1618.358730,	 12.754580,	 1014.750277,	 9277.874791,	 611.293169,	 2.647517 
0.068313,	 0.001324,	 0.029853,	 1632.596083,	 13.964052,	 994.506433,	 8541.398045,	 605.164930,	 2.697869 
0.072454,	 0.001348,	 0.027978,	 1646.928694,	 15.033915,	 973.887616,	 7838.775128,	 598.858717,	 2.750227 
0.076594,	 0.001372,	 0.026178,	 1661.176775,	 15.963259,	 953.146285,	 7178.384814,	 592.447312,	 2.804053 
0.080734,	 0.001396,	 0.024471,	 1675.199713,	 16.755880,	 932.488192,	 6564.931821,	 585.991915,	 2.858885 
0.084874,	 0.001420,	 0.022867,	 1688.891946,	 17.418981,	 912.076798,	 6000.235428,	 579.542991,	 2.914334 
0.089014,	 0.001444,	 0.021369,	 1702.175950,	 17.960498,	 892.040991,	 5484.091042,	 573.142164,	 2.970067 
0.093155,	 0.001468,	 0.019979,	 1715.000187,	 18.391255,	 872.475669,	 5014.746982,	 566.821893,	 3.025816 
0.097295,	 0.001492,	 0.018693,	 1727.328436,	 18.719213,	 853.455940,	 4589.729337,	 560.609569,	 3.081342 
0.101435,	 0.001515,	 0.017508,	 1739.141635,	 18.954187,	 835.032639,	 4205.921145,	 554.525701,	 3.136455 
0.105575,	 0.001539,	 0.016418,	 1750.429796,	 19.103611,	 817.243550,	 3860.072441,	 548.587243,	 3.190986 
0.109715,	 0.001562,	 0.015417,	 1761.192415,	 19.175234,	 800.111783,	 3548.841939,	 542.806809,	 3.244795 
0.113855,	 0.001586,	 0.014500,	 1771.434978,	 19.176248,	 783.650525,	 3268.985324,	 537.194018,	 3.297763 
0.117996,	 0.001609,	 0.013659,	 1781.166445,	 19.112155,	 767.866604,	 3017.463882,	 531.756544,	 3.349783 
0.122136,	 0.001632,	 0.012890,	 1790.399219,	 18.988072,	 752.760177,	 2791.434157,	 526.499874,	 3.400760 
0.126276,	 0.001655,	 0.012185,	 1799.147679,	 18.808547,	 738.326886,	 2588.286434,	 521.427936,	 3.450613 
0.130416,	 0.001677,	 0.011541,	 1807.427640,	 18.578912,	 724.558585,	 2405.643792,	 516.543269,	 3.499268 
0.134556,	 0.001699,	 0.010951,	 1815.255271,	 18.301612,	 711.445139,	 2241.370709,	 511.847589,	 3.546656 
0.138697,	 0.001721,	 0.010411,	 1822.647287,	 17.979818,	 698.974043,	 2093.537637,	 507.341604,	 3.592719 
0.142837,	 0.001743,	 0.009917,	 1829.619577,	 17.615831,	 687.132790,	 1960.439575,	 503.025835,	 3.637396 
0.146977,	 0.001764,	 0.009465,	 1836.187449,	 17.211344,	 675.908541,	 1840.563526,	 498.900479,	 3.680630 
0.151117,	 0.001785,	 0.009052,	 1842.365933,	 16.768120,	 665.287662,	 1732.557552,	 494.965226,	 3.722367 
0.155257,	 0.001806,	 0.008674,	 1848.169860,	 16.288667,	 655.255654,	 1635.209181,	 491.219210,	 3.762560 
0.159398,	 0.001826,	 0.008329,	 1853.612610,	 15.774377,	 645.799422,	 1547.463649,	 487.661848,	 3.801158 
0.163538,	 0.001846,	 0.008014,	 1858.707168,	 15.226801,	 636.905529,	 1468.379905,	 484.292187,	 3.838116 
0.167678,	 0.001866,	 0.007726,	 1863.466224,	 14.648131,	 628.560076,	 1397.114861,	 481.108854,	 3.873393 
0.171818,	 0.001885,	 0.007464,	 1867.901621,	 14.040382,	 620.749761,	 1332.926595,	 478.110448,	 3.906952 
0.175959,	 0.001904,	 0.007225,	 1872.024787,	 13.405874,	 613.461184,	 1275.154091,	 475.295276,	 3.938757 
0.180099,	 0.001922,	 0.007008,	 1875.846826,	 12.747377,	 606.680755,	 1223.206925,	 472.661319,	 3.968783 
0.184239,	 0.001940,	 0.006812,	 1879.378334,	 12.067612,	 600.395076,	 1176.563178,	 470.206377,	 3.997005 
0.188379,	 0.001957,	 0.006634,	 1882.630014,	 11.370130,	 594.589906,	 1134.749365,	 467.927662,	 4.023409 
0.192519,	 0.001974,	 0.006473,	 1885.612322,	 10.658690,	 589.250839,	 1097.343517,	 465.822067,	 4.047989 
0.196660,	 0.001990,	 0.006329,	 1888.335745,	 9.937407,	 584.362856,	 1063.965352,	 463.885988,	 4.070746 
0.200800,	 0.002006,	 0.006199,	 1890.811008,	 9.211017,	 579.909994,	 1034.267760,	 462.115196,	 4.091693 
0.204940,	 0.002021,	 0.006084,	 1893.048927,	 8.484428,	 575.875654,	 1007.937020,	 460.504961,	 4.110852 
0.209080,	 0.002036,	 0.005981,	 1895.060629,	 7.762790,	 572.242248,	 984.685769,	 459.049916,	 4.128258 
0.213220,	 0.002050,	 0.005891,	 1896.857621,	 7.051350,	 568.991104,	 964.249250,	 457.744033,	 4.143955 
0.217361,	 0.002064,	 0.005811,	 1898.451946,	 6.355938,	 566.102221,	 946.377975,	 456.580525,	 4.158002 
0.221501,	 0.002077,	 0.005741,	 1899.855908,	 5.682422,	 563.554803,	 930.840693,	 455.552077,	 4.170466 
0.225641,	 0.002089,	 0.005681,	 1901.082052,	 5.035557,	 561.327334,	 917.424644,	 454.650894,	 4.181425 
0.229781,	 0.002101,	 0.005629,	 1902.143375,	 4.420072,	 559.397231,	 905.926611,	 453.868570,	 4.190968 
0.233921,	 0.002113,	 0.005585,	 1903.053056,	 3.840801,	 557.741348,	 896.153078,	 453.196320,	 4.199189 
0.238061,	 0.002124,	 0.005548,	 1903.824302,	 3.299766,	 556.336310,	 887.928180,	 452.625124,	 4.206190 
0.242202,	 0.002134,	 0.005517,	 1904.470444,	 2.800275,	 555.158351,	 881.079917,	 452.145687,	 4.212077 
0.246342,	 0.002144,	 0.005491,	 1905.004590,	 2.345176,	 554.183971,	 875.445277,	 451.748723,	 4.216959 
0.250482,	 0.002154,	 0.005470,	 1905.439641,	 1.935308,	 553.389943,	 870.873659,	 451.424977,	 4.220946 
0.254622,	 0.002164,	 0.005453,	 1905.788209,	 1.570955,	 552.753479,	 867.222581,	 451.165306,	 4.224148 
0.258763,	 0.002173,	 0.005440,	 1906.062556,	 1.251537,	 552.252347,	 864.358380,	 450.960744,	 4.226672 
0.262903,	 0.002181,	 0.005430,	 1906.273971,	 0.977022,	 551.866048,	 862.154288,	 450.802994,	 4.228619 
0.267043,	 0.002189,	 0.005423,	 1906.433155,	 0.745478,	 551.575109,	 860.496013,	 450.684148,	 4.230087 
0.271183,	 0.002197,	 0.005417,	 1906.550019,	 0.554394,	 551.361471,	 859.279065,	 450.596860,	 4.231166 
0.275323,	 0.002205,	 0.005413,	 1906.633566,	 0.400819,	 551.208712,	 858.409111,	 450.534435,	 4.231938 
0.279463,	 0.002212,	 0.005410,	 1906.691813,	 0.281418,	 551.102196,	 857.802395,	 450.490902,	 4.232476 
0.283604,	 0.002219,	 0.005408,	 1906.731773,	 0.192536,	 551.029112,	 857.385942,	 450.461030,	 4.232845 
0.287744,	 0.002225,	 0.005407,	 1906.759483,	 0.130240,	 550.978430,	 857.097587,	 450.440313,	 4.233101 
0.291884,	 0.002231,	 0.005406,	 1906.779818,	 0.090645,	 550.941233,	 856.885755,	 450.425109,	 4.233289 
0.296024,	 0.002237,	 0.005405,	 1906.796792,	 0.069785,	 550.910184,	 856.708914,	 450.412416,	 4.233446 
0.300165,	 0.002242,	 0.005405,	 1906.813484,	 0.063703,	 550.879646,	 856.535394,	 450.399933,	 4.233601 
0.304305,	 0.002248,	 0.005404,	 1906.832047,	 0.068572,	 550.845687,	 856.342937,	 450.386050,	 4.233772 
0.308445,	 0.002253,	 0.005403,	 1906.853775,	 0.080738,	 550.805935,	 856.118082,	 450.369798,	 4.233973 
0.312585,	 0.002258,	 0.005401,	 1906.879165,	 0.096730,	 550.759481,	 855.855640,	 450.350806,	 4.234208 
0.316725,	 0.002262,	 0.005400,	 1906.907963,	 0.113231,	 550.706790,	 855.558273,	 450.329263,	 4.234475 
0.320866,	 0.002266,	 0.005399,	 1906.939226,	 0.127152,	 550.649588,	 855.235736,	 450.305875,	 4.234764 
0.325006,	 0.002270,	 0.005397,	 1906.971387,	 0.135704,	 550.590741,	 854.904030,	 450.281813,	 4.235062 
0.329146,	 0.002273,	 0.005396,	 1907.002262,	 0.136193,	 550.534248,	 854.585567,	 450.258711,	 4.235348 
0.333286,	 0.002277,	 0.005394,	 1907.029079,	 0.125978,	 550.485182,	 854.308962,	 450.238646,	 4.235596 
0.337426,	 0.002280,	 0.005393,	 1907.048523,	 0.102598,	 550.449607,	 854.108300,	 450.224098,	 4.235776 
0.341566,	 0.002283,	 0.005393,	 1907.056753,	 0.063699,	 550.434555,	 854.023044,	 450.217942,	 4.235852 
0.345707,	 0.002286,	 0.005393,	 1907.049424,	 0.007018,	 550.447977,	 854.097851,	 450.223431,	 4.235784 
0.349847,	 0.002289,	 0.005395,	 1907.021669,	 -0.069676,	 550.498774,	 854.382713,	 450.244205,	 4.235527 
0.353987,	 0.002291,	 0.005397,	 1906.968161,	 -0.168476,	 550.596687,	 854.932495,	 450.284244,	 4.235032 
0.358127,	 0.002293,	 0.005401,	 1906.883109,	 -0.291358,	 550.752299,	 855.806982,	 450.347870,	 4.234245 
0.362267,	 0.002295,	 0.005407,	 1906.760119,	 -0.440549,	 550.977287,	 857.072401,	 450.439846,	 4.233107 
0.366408,	 0.002296,	 0.005415,	 1906.592221,	 -0.618369,	 551.284364,	 858.801459,	 450.565351,	 4.231556 
0.370548,	 0.002298,	 0.005425,	 1906.372064,	 -0.826649,	 551.686922,	 861.071520,	 450.729827,	 4.229523 
0.374688,	 0.002299,	 0.005438,	 1906.091856,	 -1.067029,	 552.199133,	 863.965485,	 450.939017,	 4.226940 
0.378828,	 0.002301,	 0.005455,	 1905.743341,	 -1.341071,	 552.835983,	 867.572479,	 451.198976,	 4.223733 
0.382969,	 0.002302,	 0.005475,	 1905.317959,	 -1.649824,	 553.612969,	 871.986597,	 451.515934,	 4.219826 
0.387109,	 0.002303,	 0.005499,	 1904.807145,	 -1.993169,	 554.545541,	 877.304141,	 451.896068,	 4.215147 
0.391249,	 0.002303,	 0.005528,	 1904.202204,	 -2.370686,	 555.649330,	 883.625879,	 452.345580,	 4.209621 
0.395389,	 0.002303,	 0.005561,	 1903.493606,	 -2.784023,	 556.941400,	 891.066302,	 452.871202,	 4.203172 
0.399529,	 0.002304,	 0.005600,	 1902.673321,	 -3.229350,	 558.436001,	 899.726946,	 453.478454,	 4.195736 
0.403670,	 0.002304,	 0.005645,	 1901.733688,	 -3.703171,	 560.146611,	 909.711280,	 454.172475,	 4.187258 
0.407810,	 0.002305,	 0.005696,	 1900.668149,	 -4.200424,	 562.084599,	 921.116897,	 454.957466,	 4.177693 
0.411950,	 0.002305,	 0.005754,	 1899.471720,	 -4.714190,	 564.258368,	 934.030748,	 455.836354,	 4.167016 
0.002070,	 0.001648,	 0.044550,	 1532.900000,	 0.000049,	 1131.396324,	 14500.813631,	 645.471892,	 2.374852 
0.006210,	 0.001670,	 0.044549,	 1532.903214,	 0.002382,	 1131.392093,	 14500.593989,	 645.470685,	 2.374861 
0.010351,	 0.001698,	 0.044545,	 1532.928735,	 0.019563,	 1131.358487,	 14498.849690,	 645.461099,	 2.374936 
0.014491,	 0.001728,	 0.044528,	 1533.041155,	 0.089338,	 1131.210443,	 14491.164958,	 645.418867,	 2.375265 
0.018631,	 0.001759,	 0.044472,	 1533.390871,	 0.288283,	 1130.749796,	 14467.259329,	 645.287441,	 2.376291 
0.022771,	 0.001793,	 0.044338,	 1534.239750,	 0.727410,	 1129.630984,	 14409.266075,	 644.968125,	 2.378784 
0.026911,	 0.001827,	 0.044068,	 1535.947564,	 1.525283,	 1127.377354,	 14292.811464,	 644.324443,	 2.383812 
0.031052,	 0.001862,	 0.043599,	 1538.906753,	 2.765520,	 1123.463958,	 14091.887066,	 643.205169,	 2.392564 
0.035192,	 0.001898,	 0.042883,	 1543.450674,	 4.464119,	 1117.434494,	 13785.805253,	 641.476854,	 2.406099 
0.039332,	 0.001935,	 0.041890,	 1549.776608,	 6.563880,	 1109.000241,	 13365.117371,	 639.051375,	 2.425142 
0.043472,	 0.001973,	 0.040625,	 1557.914523,	 8.955827,	 1098.082305,	 12833.893458,	 635.897914,	 2.449985 
0.047612,	 0.002011,	 0.039118,	 1567.739533,	 11.508578,	 1084.800181,	 12208.253839,	 632.040384,	 2.480509 
0.051753,	 0.002049,	 0.037417,	 1579.019479,	 14.100471,	 1069.415770,	 11511.937489,	 627.542647,	 2.516295 
0.055893,	 0.002088,	 0.035581,	 1591.466011,	 16.635647,	 1052.272185,	 10771.591933,	 622.492322,	 2.556743 
0.060033,	 0.002128,	 0.033667,	 1604.780117,	 19.044274,	 1033.737589,	 10012.486460,	 616.985713,	 2.601184 
0.064173,	 0.002167,	 0.031727,	 1618.667734,	 21.268692,	 1014.187423,	 9257.005277,	 611.123612,	 2.648903 
0.068313,	 0.002207,	 0.029804,	 1632.869662,	 23.277698,	 993.963684,	 8522.630425,	 604.999773,	 2.699233 
0.072454,	 0.002247,	 0.027933,	 1647.163204,	 25.054323,	 973.372177,	 7822.229791,	 598.700220,	 2.751550 
0.076594,	 0.002287,	 0.026139,	 1661.370857,	 26.597280,	 952.662927,	 7164.036099,	 592.297073,	 2.805322 
0.080734,	 0.002327,	 0.024437,	 1675.353597,	 27.912886,	 932.040006,	 6552.664561,	 585.851074,	 2.860089 
0.084874,	 0.002367,	 0.022838,	 1689.006922,	 29.013127,	 911.665651,	 5989.884289,	 579.412352,	 2.915464 
0.089014,	 0.002407,	 0.021345,	 1702.253923,	 29.911079,	 891.667979,	 5475.471185,	 573.022320,	 2.971118 
0.093155,	 0.002446,	 0.019958,	 1715.043475,	 30.624984,	 872.141179,	 5007.666083,	 566.713228,	 3.026781 
0.097295,	 0.002486,	 0.018676,	 1727.339441,	 31.167733,	 853.160129,	 4584.006659,	 560.512406,	 3.082217 
0.101435,	 0.002526,	 0.017494,	 1739.122787,	 31.555885,	 834.775362,	 4201.387862,	 554.440268,	 3.137234 
0.105575,	 0.002565,	 0.016407,	 1750.383410,	 31.801585,	 817.024612,	 3856.578110,	 548.513755,	 3.191665 
0.109715,	 0.002604,	 0.015409,	 1761.120668,	 31.917833,	 799.930909,	 3546.252939,	 542.745452,	 3.245370 
0.113855,	 0.002643,	 0.014494,	 1771.339891,	 31.916654,	 783.507384,	 3267.184109,	 537.144954,	 3.298230 
0.117996,	 0.002682,	 0.013656,	 1781.049837,	 31.807044,	 767.760925,	 3016.349340,	 531.719951,	 3.350135 
0.122136,	 0.002720,	 0.012888,	 1790.262713,	 31.597542,	 752.691738,	 2790.919474,	 526.475939,	 3.400994 
0.126276,	 0.002758,	 0.012186,	 1798.992719,	 31.295696,	 738.295501,	 2588.297167,	 521.416853,	 3.450723 
0.130416,	 0.002795,	 0.011543,	 1807.255347,	 30.909382,	 724.564345,	 2406.119405,	 516.545322,	 3.499247 
0.134556,	 0.002832,	 0.010954,	 1815.066626,	 30.443802,	 711.488151,	 2242.259060,	 511.863061,	 3.546499 
0.138697,	 0.002869,	 0.010416,	 1822.443169,	 29.904426,	 699.054361,	 2094.793311,	 507.370752,	 3.592419 
0.142837,	 0.002905,	 0.009923,	 1829.400775,	 29.295023,	 687.250437,	 1962.023229,	 503.068896,	 3.636948 
0.146977,	 0.002940,	 0.009473,	 1835.954662,	 28.618315,	 676.063523,	 1842.441192,	 498.957673,	 3.680027 
0.151117,	 0.002975,	 0.009061,	 1842.119797,	 27.877295,	 665.479922,	 1734.699579,	 495.036740,	 3.721604 
0.155257,	 0.003010,	 0.008684,	 1847.910987,	 27.076409,	 655.484977,	 1637.589126,	 491.305159,	 3.761632 
0.159398,	 0.003044,	 0.008340,	 1853.341600,	 26.217858,	 646.065456,	 1550.057754,	 487.762282,	 3.800062 
0.163538,	 0.003077,	 0.008025,	 1858.424627,	 25.304270,	 637.207746,	 1471.166532,	 484.407074,	 3.836849 
0.167678,	 0.003110,	 0.007738,	 1863.172796,	 24.339525,	 628.897698,	 1400.073855,	 481.238048,	 3.871954 
0.171818,	 0.003141,	 0.007477,	 1867.598021,	 23.327037,	 621.121716,	 1336.038637,	 478.253669,	 3.905341 
0.175959,	 0.003173,	 0.007239,	 1871.711823,	 22.270775,	 613.866061,	 1278.400294,	 475.452095,	 3.936978 
0.180099,	 0.003203,	 0.007022,	 1875.525420,	 21.175492,	 607.116761,	 1226.568512,	 472.831134,	 3.966839 
0.184239,	 0.003233,	 0.006826,	 1879.049557,	 20.045715,	 600.859995,	 1180.020897,	 470.388395,	 3.994904 
0.188379,	 0.003262,	 0.006649,	 1882.295085,	 18.887510,	 595.081081,	 1138.283588,	 468.120893,	 4.021162 
0.192519,	 0.003290,	 0.006489,	 1885.272637,	 17.707157,	 589.765144,	 1100.933828,	 466.025310,	 4.045608 
0.196660,	 0.003317,	 0.006344,	 1887.992878,	 16.511499,	 584.896699,	 1067.590397,	 464.097831,	 4.068248 
0.200800,	 0.003343,	 0.006215,	 1890.466700,	 15.308420,	 580.459354,	 1037.905560,	 462.334030,	 4.089097 
0.204940,	 0.003369,	 0.006100,	 1892.705082,	 14.105988,	 576.436109,	 1011.564796,	 460.728993,	 4.108180 
0.209080,	 0.003393,	 0.005997,	 1894.719289,	 12.912635,	 572.809041,	 988.280058,	 459.277199,	 4.125533 
0.213220,	 0.003417,	 0.005906,	 1896.520945,	 11.736941,	 569.559212,	 967.785941,	 457.972493,	 4.141203 
0.217361,	 0.003439,	 0.005826,	 1898.122098,	 10.588392,	 566.666577,	 949.833702,	 456.808054,	 4.155250 
0.221501,	 0.003461,	 0.005756,	 1899.534954,	 9.476512,	 564.110513,	 934.193243,	 455.776627,	 4.167740 
0.225641,	 0.003482,	 0.005695,	 1900.772041,	 8.409054,	 561.869573,	 920.651930,	 454.870435,	 4.178752 
0.229781,	 0.003502,	 0.005643,	 1901.846248,	 7.393548,	 559.921417,	 909.008000,	 454.081170,	 4.188371 
0.233921,	 0.003521,	 0.005598,	 1902.770459,	 6.437588,	 558.243512,	 899.071072,	 453.400292,	 4.196692 
0.238061,	 0.003539,	 0.005560,	 1903.557992,	 5.544770,	 556.812384,	 890.665356,	 452.818745,	 4.203815 
0.242202,	 0.003557,	 0.005528,	 1904.221901,	 4.720236,	 555.604860,	 883.621857,	 452.327478,	 4.209843 
0.246342,	 0.003574,	 0.005501,	 1904.774839,	 3.968353,	 554.598378,	 877.781937,	 451.917595,	 4.214881 
0.250482,	 0.003590,	 0.005480,	 1905.229492,	 3.290588,	 553.770211,	 872.997574,	 451.580051,	 4.219036 
0.254622,	 0.003607,	 0.005462,	 1905.598236,	 2.687356,	 553.098101,	 869.129055,	 451.305927,	 4.222413 
0.258763,	 0.003621,	 0.005448,	 1905.893196,	 2.157600,	 552.560163,	 866.044957,	 451.086406,	 4.225120 
0.262903,	 0.003635,	 0.005437,	 1906.124960,	 1.700951,	 552.137260,	 863.624441,	 450.913753,	 4.227251 
0.267043,	 0.003648,	 0.005428,	 1906.303919,	 1.314375,	 551.810557,	 861.756417,	 450.780329,	 4.228899 
0.271183,	 0.003662,	 0.005422,	 1906.439719,	 0.993859,	 551.562539,	 860.339204,	 450.679013,	 4.230150 
0.275323,	 0.003675,	 0.005417,	 1906.541114,	 0.734641,	 551.377286,	 859.281043,	 450.603322,	 4.231086 
0.279463,	 0.003687,	 0.005413,	 1906.615893,	 0.531340,	 551.240617,	 858.500469,	 450.547473,	 4.231776 
0.283604,	 0.003699,	 0.005411,	 1906.670883,	 0.378054,	 551.140082,	 857.926332,	 450.506386,	 4.232284 
0.287744,	 0.003709,	 0.005409,	 1906.712028,	 0.268385,	 551.064841,	 857.497684,	 450.475634,	 4.232664 
0.291884,	 0.003718,	 0.005407,	 1906.744016,	 0.196154,	 551.006332,	 857.164188,	 450.451719,	 4.232960 
0.296024,	 0.003728,	 0.005406,	 1906.770828,	 0.154934,	 550.957283,	 856.884594,	 450.431669,	 4.233208 
0.300165,	 0.003737,	 0.005405,	 1906.795558,	 0.138259,	 550.912036,	 856.627195,	 450.413173,	 4.233436 
0.304305,	 0.003747,	 0.005404,	 1906.820381,	 0.139873,	 550.866616,	 856.369472,	 450.394606,	 4.233666 
0.308445,	 0.003755,	 0.005402,	 1906.846633,	 0.153792,	 550.818579,	 856.097457,	 450.374967,	 4.233909 
0.312585,	 0.003763,	 0.005401,	 1906.874872,	 0.174301,	 550.766901,	 855.805280,	 450.353840,	 4.234170 