TITLE = "Final State"
VARIABLES = "X", "Y", "rho", "u", "v", "T", "p", "c", "M"
ZONE I=100, J=50, DATAPACKING=POINT
0.002070,	 0.000330,	 0.044550,	 1532.900576,	 0.000089,	 1188.332329,	 15230.518220,	 661.513802,	 2.317262 
0.006210,	 0.000334,	 0.044549,	 1532.907932,	 0.001157,	 1188.323755,	 15230.014865,	 661.511415,	 2.317281 
0.010351,	 0.000340,	 0.044542,	 1532.950750,	 0.006908,	 1188.273847,	 15227.084409,	 661.497524,	 2.317395 
0.014491,	 0.000346,	 0.044517,	 1533.113672,	 0.026998,	 1188.083937,	 15215.932901,	 661.444661,	 2.317826 
0.018631,	 0.000352,	 0.044444,	 1533.578000,	 0.079184,	 1187.542578,	 15184.158060,	 661.293948,	 2.319056 
0.022771,	 0.000359,	 0.044277,	 1534.640874,	 0.187068,	 1186.302755,	 15111.504377,	 660.948655,	 2.321876 
0.026911,	 0.000365,	 0.043957,	 1536.690376,	 0.373596,	 1183.909601,	 14971.798707,	 660.281645,	 2.327326 
0.031052,	 0.000372,	 0.043420,	 1540.129302,	 0.652277,	 1179.886836,	 14738.700718,	 659.158917,	 2.336507 
0.035192,	 0.000380,	 0.042620,	 1545.279313,	 1.021733,	 1173.845599,	 14393.011593,	 657.469244,	 2.350345 
0.039332,	 0.000387,	 0.041536,	 1552.308526,	 1.466324,	 1165.567311,	 13928.201295,	 655.146813,	 2.369407 
0.043472,	 0.000395,	 0.040181,	 1561.210134,	 1.961952,	 1155.029881,	 13351.784667,	 652.178629,	 2.393840 
0.047612,	 0.000402,	 0.038590,	 1571.824785,	 2.482335,	 1142.385741,	 12682.918551,	 648.599098,	 2.423418 
0.051753,	 0.000410,	 0.036819,	 1583.896044,	 3.005061,	 1127.902293,	 11947.261596,	 644.474433,	 2.457660 
0.055893,	 0.000418,	 0.034926,	 1597.118046,	 3.511776,	 1111.910947,	 11172.456692,	 639.889460,	 2.495934 
0.060033,	 0.000426,	 0.032970,	 1611.180628,	 3.989185,	 1094.757063,	 10384.094208,	 634.934362,	 2.537562 
0.064173,	 0.000433,	 0.031003,	 1625.784850,	 4.426652,	 1076.783324,	 9604.310182,	 629.700610,	 2.581847 
0.068313,	 0.000441,	 0.029067,	 1640.670847,	 4.818906,	 1058.295951,	 8850.008650,	 624.271518,	 2.628148 
0.072454,	 0.000449,	 0.027195,	 1655.617857,	 5.163228,	 1039.563353,	 8133.319939,	 618.721823,	 2.675881 
0.076594,	 0.000457,	 0.025408,	 1670.450419,	 5.459855,	 1020.806361,	 7461.789935,	 613.114571,	 2.724547 
0.080734,	 0.000465,	 0.023721,	 1685.031689,	 5.710349,	 1002.204206,	 6839.417016,	 607.502492,	 2.773719 
0.084874,	 0.000473,	 0.022142,	 1699.259307,	 5.917267,	 983.897521,	 6267.446480,	 601.928472,	 2.823042 
0.089014,	 0.000481,	 0.020673,	 1713.058218,	 6.083287,	 965.995554,	 5745.227956,	 596.427305,	 2.872218 
0.093155,	 0.000489,	 0.019314,	 1726.378657,	 6.212011,	 948.577124,	 5270.678874,	 591.025579,	 2.921007 
0.097295,	 0.000497,	 0.018061,	 1739.185432,	 6.305984,	 931.703305,	 4841.085512,	 585.745245,	 2.969204 
0.101435,	 0.000505,	 0.016909,	 1751.459953,	 6.368383,	 915.413855,	 4453.165646,	 580.602223,	 3.016646 
0.105575,	 0.000513,	 0.015853,	 1763.192131,	 6.401536,	 899.737194,	 4103.559140,	 575.609285,	 3.063195 
0.109715,	 0.000521,	 0.014886,	 1774.380937,	 6.407889,	 884.689214,	 3788.856222,	 570.775496,	 3.108740 
0.113856,	 0.000529,	 0.014002,	 1785.030944,	 6.389688,	 870.277568,	 3505.774037,	 566.107421,	 3.153187 
0.117996,	 0.000536,	 0.013194,	 1795.149877,	 6.348610,	 856.504791,	 3251.255673,	 561.610025,	 3.196455 
0.122136,	 0.000544,	 0.012457,	 1804.748701,	 6.286240,	 843.368084,	 3022.452819,	 557.286515,	 3.238477 
0.126276,	 0.000552,	 0.011784,	 1813.840756,	 6.204728,	 830.860424,	 2816.746773,	 553.138631,	 3.279199 
0.130416,	 0.000559,	 0.011170,	 1822.439984,	 6.105082,	 818.972995,	 2631.775571,	 549.167395,	 3.318570 
0.134557,	 0.000566,	 0.010610,	 1830.560434,	 5.987865,	 807.695900,	 2465.423407,	 545.373326,	 3.356545 
0.138697,	 0.000574,	 0.010099,	 1838.216699,	 5.854037,	 797.017605,	 2315.779768,	 541.756226,	 3.393087 
0.142837,	 0.000581,	 0.009634,	 1845.422591,	 5.704346,	 786.926828,	 2181.156807,	 538.315803,	 3.428158 
0.146977,	 0.000588,	 0.009211,	 1852.191447,	 5.539402,	 777.412178,	 2060.056247,	 535.051546,	 3.461722 
0.151117,	 0.000595,	 0.008825,	 1858.536487,	 5.359911,	 768.461714,	 1951.138321,	 531.962565,	 3.493750 
0.155257,	 0.000602,	 0.008475,	 1864.470915,	 5.166902,	 760.062842,	 1853.200185,	 529.047546,	 3.524216 
0.159398,	 0.000609,	 0.008157,	 1870.006732,	 4.961077,	 752.204049,	 1765.193848,	 526.305353,	 3.553096 
0.163538,	 0.000615,	 0.007869,	 1875.155888,	 4.743307,	 744.873318,	 1686.181475,	 523.734475,	 3.580367 
0.167678,	 0.000622,	 0.007607,	 1879.930438,	 4.514792,	 738.057950,	 1615.319580,	 521.332962,	 3.606018 
0.171818,	 0.000628,	 0.007372,	 1884.342054,	 4.276741,	 731.745293,	 1551.862015,	 519.098678,	 3.630036 
0.175959,	 0.000635,	 0.007159,	 1888.402543,	 4.030576,	 725.922038,	 1495.139195,	 517.029049,	 3.652419 
0.180099,	 0.000641,	 0.006968,	 1892.123990,	 3.777971,	 720.574038,	 1444.547519,	 515.121004,	 3.673171 
0.184239,	 0.000647,	 0.006797,	 1895.518648,	 3.520623,	 715.686505,	 1399.547040,	 513.371042,	 3.692304 
0.188379,	 0.000652,	 0.006645,	 1898.599577,	 3.260625,	 711.243107,	 1359.641036,	 511.774908,	 3.709839 
0.192519,	 0.000658,	 0.006509,	 1901.380316,	 3.000116,	 707.226470,	 1324.379132,	 510.327777,	 3.725807 
0.196659,	 0.000663,	 0.006389,	 1903.875155,	 2.741347,	 703.617807,	 1293.347403,	 509.024123,	 3.740249 
0.200800,	 0.000669,	 0.006284,	 1906.099333,	 2.486797,	 700.396652,	 1266.159616,	 507.857633,	 3.753219 
0.204940,	 0.000674,	 0.006191,	 1908.068843,	 2.238853,	 697.541176,	 1242.457823,	 506.821323,	 3.764779 
0.209080,	 0.000679,	 0.006111,	 1909.800492,	 1.999799,	 695.028118,	 1221.906571,	 505.907527,	 3.775001 
0.213220,	 0.000683,	 0.006041,	 1911.311702,	 1.771634,	 692.833100,	 1204.191565,	 505.108024,	 3.783968 
0.217361,	 0.000688,	 0.005982,	 1912.620619,	 1.556545,	 690.930497,	 1189.011984,	 504.414003,	 3.791769 
0.221501,	 0.000692,	 0.005931,	 1913.745602,	 1.356286,	 689.294201,	 1176.085718,	 503.816360,	 3.798499 
0.225641,	 0.000696,	 0.005887,	 1914.704888,	 1.171767,	 687.898142,	 1165.151924,	 503.305900,	 3.804257 
0.229781,	 0.000700,	 0.005851,	 1915.516867,	 1.004074,	 686.715901,	 1155.960724,	 502.873217,	 3.809145 
0.233921,	 0.000704,	 0.005821,	 1916.199821,	 0.854264,	 685.721121,	 1148.273628,	 502.508852,	 3.813266 
0.238061,	 0.000708,	 0.005795,	 1916.771236,	 0.722055,	 684.888527,	 1141.874424,	 502.203690,	 3.816721 
0.242202,	 0.000711,	 0.005774,	 1917.248199,	 0.607746,	 684.193356,	 1136.555339,	 501.948753,	 3.819610 
0.246342,	 0.000715,	 0.005756,	 1917.646943,	 0.511303,	 683.612049,	 1132.122902,	 501.735474,	 3.822028 
0.250482,	 0.000718,	 0.005742,	 1917.982436,	 0.431773,	 683.122853,	 1128.403996,	 501.555920,	 3.824065 
0.254622,	 0.000721,	 0.005729,	 1918.268414,	 0.368054,	 682.705785,	 1125.242017,	 501.402788,	 3.825803 
0.258763,	 0.000724,	 0.005718,	 1918.517172,	 0.318669,	 682.342944,	 1122.499118,	 501.269529,	 3.827317 
0.262903,	 0.000727,	 0.005708,	 1918.739889,	 0.282885,	 682.018042,	 1120.047681,	 501.150174,	 3.828673 
0.267043,	 0.000730,	 0.005699,	 1918.946104,	 0.259050,	 681.717178,	 1117.781623,	 501.039623,	 3.829929 
0.271183,	 0.000732,	 0.005691,	 1919.143869,	 0.245488,	 681.428610,	 1115.611997,	 500.933568,	 3.831135 
0.275323,	 0.000735,	 0.005682,	 1919.339805,	 0.240561,	 681.142678,	 1113.465995,	 500.828460,	 3.832330 
0.279463,	 0.000737,	 0.005673,	 1919.539181,	 0.242700,	 680.851697,	 1111.285903,	 500.721472,	 3.833547 
0.283604,	 0.000740,	 0.005664,	 1919.745968,	 0.250370,	 680.549866,	 1109.028528,	 500.610472,	 3.834810 
0.287744,	 0.000742,	 0.005655,	 1919.962728,	 0.261784,	 680.233442,	 1106.667132,	 500.494078,	 3.836135 
0.291884,	 0.000744,	 0.005645,	 1920.191454,	 0.276235,	 679.899511,	 1104.179096,	 500.371215,	 3.837534 
0.296024,	 0.000746,	 0.005635,	 1920.432957,	 0.292440,	 679.546884,	 1101.556069,	 500.241440,	 3.839012 
0.300165,	 0.000747,	 0.005624,	 1920.686956,	 0.308961,	 679.175963,	 1098.802320,	 500.104897,	 3.840568 
0.304305,	 0.000749,	 0.005612,	 1920.952408,	 0.324702,	 678.788263,	 1095.930005,	 499.962137,	 3.842196 
0.308445,	 0.000751,	 0.005600,	 1921.227605,	 0.338763,	 678.386274,	 1092.958204,	 499.814072,	 3.843885 
0.312585,	 0.000753,	 0.005588,	 1921.510193,	 0.350290,	 677.973431,	 1089.912884,	 499.661964,	 3.845620 
0.316725,	 0.000754,	 0.005576,	 1921.797152,	 0.358356,	 677.554140,	 1086.827352,	 499.507433,	 3.847385 
0.320866,	 0.000755,	 0.005563,	 1922.084969,	 0.362207,	 677.133533,	 1083.739831,	 499.352369,	 3.849156 
0.325006,	 0.000757,	 0.005551,	 1922.369858,	 0.361482,	 676.717145,	 1080.690137,	 499.198812,	 3.850910 
0.329146,	 0.000758,	 0.005539,	 1922.647519,	 0.355626,	 676.311263,	 1077.723574,	 499.049085,	 3.852622 
0.333286,	 0.000759,	 0.005528,	 1922.913025,	 0.343782,	 675.923096,	 1074.892687,	 498.905850,	 3.854260 
0.337426,	 0.000760,	 0.005517,	 1923.161072,	 0.325319,	 675.560408,	 1072.253255,	 498.771981,	 3.855792 
0.341567,	 0.000761,	 0.005507,	 1923.385965,	 0.299692,	 675.231535,	 1069.864608,	 498.650561,	 3.857182 
0.345707,	 0.000762,	 0.005499,	 1923.581579,	 0.266306,	 674.945450,	 1067.790518,	 498.544915,	 3.858392 
0.349847,	 0.000763,	 0.005492,	 1923.741394,	 0.224641,	 674.711701,	 1066.098416,	 498.458578,	 3.859381 
0.353987,	 0.000764,	 0.005487,	 1923.858469,	 0.174120,	 674.540454,	 1064.860338,	 498.395318,	 3.860105 
0.358127,	 0.000764,	 0.005484,	 1923.925508,	 0.114268,	 674.442392,	 1064.151958,	 498.359089,	 3.860521 
0.362267,	 0.000765,	 0.005484,	 1923.934782,	 0.044619,	 674.428830,	 1064.053491,	 498.354079,	 3.860578 
0.366408,	 0.000765,	 0.005486,	 1923.878084,	 -0.035387,	 674.511771,	 1064.650945,	 498.384722,	 3.860227 
0.370548,	 0.000766,	 0.005492,	 1923.746927,	 -0.126165,	 674.703619,	 1066.034352,	 498.455593,	 3.859415 
0.374688,	 0.000766,	 0.005501,	 1923.532616,	 -0.227957,	 675.017068,	 1068.297181,	 498.571364,	 3.858089 
0.378828,	 0.000767,	 0.005514,	 1923.226287,	 -0.340905,	 675.465034,	 1071.536523,	 498.736772,	 3.856195 
0.382969,	 0.000767,	 0.005531,	 1922.819129,	 -0.464889,	 676.060333,	 1075.851314,	 498.956496,	 3.853681 
0.387109,	 0.000768,	 0.005553,	 1922.302781,	 -0.599251,	 676.815090,	 1081.338420,	 499.234937,	 3.850497 
0.391249,	 0.000768,	 0.005580,	 1921.669319,	 -0.743200,	 677.740748,	 1088.093878,	 499.576214,	 3.846599 
0.395389,	 0.000768,	 0.005613,	 1920.910616,	 -0.896852,	 678.849006,	 1096.222383,	 499.984507,	 3.841941 
0.399529,	 0.000768,	 0.005651,	 1920.020761,	 -1.057778,	 680.148272,	 1105.807110,	 500.462744,	 3.836491 
0.403670,	 0.000768,	 0.005696,	 1918.995085,	 -1.223990,	 681.645087,	 1116.924344,	 501.013131,	 3.830230 
0.407810,	 0.000768,	 0.005746,	 1917.830872,	 -1.392949,	 683.343091,	 1129.634753,	 501.636764,	 3.823148 
0.411950,	 0.000768,	 0.005803,	 1916.527831,	 -1.561534,	 685.242334,	 1143.977785,	 502.333390,	 3.815252 
0.002070,	 0.000989,	 0.044550,	 1532.900600,	 0.000271,	 1188.332300,	 15230.516566,	 661.513794,	 2.317262 
0.006210,	 0.001002,	 0.044549,	 1532.908228,	 0.003516,	 1188.323410,	 15229.995024,	 661.511319,	 2.317282 
0.010351,	 0.001019,	 0.044542,	 1532.952370,	 0.020918,	 1188.271959,	 15226.975969,	 661.496998,	 2.317399 
0.014491,	 0.001037,	 0.044516,	 1533.119446,	 0.081511,	 1188.077203,	 15215.547803,	 661.442787,	 2.317841 
0.018631,	 0.001056,	 0.044442,	 1533.593314,	 0.238457,	 1187.524702,	 15183.140787,	 661.288971,	 2.319097 
0.022771,	 0.001076,	 0.044273,	 1534.673273,	 0.562238,	 1186.264841,	 15109.360039,	 660.938093,	 2.321962 
0.026911,	 0.001096,	 0.043948,	 1536.747727,	 1.121257,	 1183.842164,	 14968.017345,	 660.262840,	 2.327479 
0.031052,	 0.001117,	 0.043407,	 1540.217164,	 1.956085,	 1179.782649,	 14732.929312,	 659.129813,	 2.336745 
0.035192,	 0.001139,	 0.042602,	 1545.398985,	 3.063404,	 1173.701812,	 14385.178072,	 657.428975,	 2.350675 
0.039332,	 0.001161,	 0.041514,	 1552.456672,	 4.397441,	 1165.385910,	 13918.530916,	 655.095830,	 2.369826 
0.043472,	 0.001184,	 0.040155,	 1561.379794,	 5.886100,	 1154.816762,	 13340.726478,	 652.118458,	 2.394336 
0.047612,	 0.001206,	 0.038562,	 1572.006977,	 7.449459,	 1142.149227,	 12671.042438,	 648.531953,	 2.423974 
0.051753,	 0.001230,	 0.036789,	 1584.081723,	 9.019568,	 1127.651167,	 11935.155040,	 644.402684,	 2.458257 
0.055893,	 0.001253,	 0.034897,	 1597.299627,	 10.542197,	 1111.652862,	 11160.625782,	 639.815193,	 2.496556 
0.060033,	 0.001277,	 0.032942,	 1611.351942,	 11.976851,	 1094.498695,	 10372.932685,	 634.859434,	 2.538194 
0.064173,	 0.001300,	 0.030978,	 1625.941377,	 13.291862,	 1076.530101,	 9594.081319,	 629.626564,	 2.582476 
0.068313,	 0.001324,	 0.029044,	 1640.809701,	 14.471222,	 1058.051936,	 8840.849513,	 624.199543,	 2.628764 
0.072454,	 0.001348,	 0.027174,	 1655.737491,	 15.506891,	 1039.331460,	 8125.273539,	 618.652811,	 2.676477 
0.076594,	 0.001372,	 0.025390,	 1670.550297,	 16.399415,	 1020.588585,	 7454.833011,	 613.049167,	 2.725117 
0.080734,	 0.001396,	 0.023705,	 1685.111973,	 17.153418,	 1002.001874,	 6833.486546,	 607.441166,	 2.774259 
0.084874,	 0.001420,	 0.022128,	 1699.320613,	 17.776482,	 983.711483,	 6262.458076,	 601.871563,	 2.823549 
0.089014,	 0.001444,	 0.020662,	 1713.101413,	 18.276611,	 965.826366,	 5741.090061,	 596.375072,	 2.872687 
0.093155,	 0.001468,	 0.019304,	 1726.404785,	 18.664498,	 948.425055,	 5267.297519,	 590.978203,	 2.921437 
0.097295,	 0.001492,	 0.018053,	 1739.195553,	 18.947826,	 931.568548,	 4838.373502,	 585.702883,	 2.969592 
0.101435,	 0.001515,	 0.016903,	 1751.455134,	 19.136051,	 915.296475,	 4451.042006,	 580.564997,	 3.016992 
0.105575,	 0.001539,	 0.015849,	 1763.173370,	 19.236192,	 899.637247,	 4101.952198,	 575.577313,	 3.063495 
0.109715,	 0.001562,	 0.014883,	 1774.349169,	 19.255557,	 884.606724,	 3787.702529,	 570.748885,	 3.108992 
0.113856,	 0.001586,	 0.014000,	 1784.987034,	 19.200887,	 870.212525,	 3505.017822,	 566.086266,	 3.153389 
0.117996,	 0.001609,	 0.013194,	 1795.094594,	 19.077252,	 856.457209,	 3250.849086,	 561.594425,	 3.196606 
0.122136,	 0.001632,	 0.012457,	 1804.682707,	 18.889471,	 843.338013,	 3022.355165,	 557.276580,	 3.238574 
0.126276,	 0.001655,	 0.011785,	 1813.764420,	 18.643148,	 830.848200,	 2816.927378,	 553.134561,	 3.279239 
0.130416,	 0.001677,	 0.011172,	 1822.353620,	 18.341128,	 818.978946,	 2632.207849,	 549.169390,	 3.318550 
0.134557,	 0.001699,	 0.010612,	 1830.464367,	 17.985950,	 807.720256,	 2466.082960,	 545.381548,	 3.356463 
0.138697,	 0.001721,	 0.010103,	 1838.111281,	 17.580710,	 797.060467,	 2316.644115,	 541.770793,	 3.392939 
0.142837,	 0.001743,	 0.009638,	 1845.308175,	 17.127779,	 786.988210,	 2182.205658,	 538.336797,	 3.427943 
0.146977,	 0.001764,	 0.009215,	 1852.068383,	 16.629084,	 777.492023,	 2061.271454,	 535.079022,	 3.461438 
0.151117,	 0.001785,	 0.008830,	 1858.405131,	 16.086803,	 768.559871,	 1952.503434,	 531.996538,	 3.493396 
0.155257,	 0.001806,	 0.008481,	 1864.331668,	 15.504009,	 760.179005,	 1854.699930,	 529.087973,	 3.523792 
0.159398,	 0.001826,	 0.008163,	 1869.860037,	 14.882986,	 752.337768,	 1766.813720,	 526.352131,	 3.552601 
0.163538,	 0.001846,	 0.007875,	 1875.002252,	 14.226454,	 745.023970,	 1687.907448,	 523.787435,	 3.579804 
0.167678,	 0.001866,	 0.007614,	 1879.770451,	 13.538012,	 738.224700,	 1617.137859,	 521.391851,	 3.605387 
0.171818,	 0.001885,	 0.007379,	 1884.176410,	 12.821413,	 731.927070,	 1553.758620,	 519.163150,	 3.629341 
0.175959,	 0.001904,	 0.007167,	 1888.232048,	 12.080998,	 726.117523,	 1497.099797,	 517.098660,	 3.651664 
0.180099,	 0.001922,	 0.006976,	 1891.949570,	 11.321799,	 720.781657,	 1446.557397,	 515.195210,	 3.672362 
0.184239,	 0.001940,	 0.006805,	 1895.341358,	 10.549067,	 715.904422,	 1401.590710,	 513.449193,	 3.691447 
0.188379,	 0.001957,	 0.006653,	 1898.420581,	 9.768977,	 711.469257,	 1361.702653,	 511.856265,	 3.708943 
0.192519,	 0.001974,	 0.006517,	 1901.200880,	 8.987991,	 707.458584,	 1326.442357,	 510.411515,	 3.724881 
0.196659,	 0.001990,	 0.006397,	 1903.696627,	 8.212887,	 703.853449,	 1295.395469,	 509.109352,	 3.739303 
0.200800,	 0.002006,	 0.006292,	 1905.923090,	 7.450947,	 700.633317,	 1268.175881,	 507.943429,	 3.752264 
0.204940,	 0.002021,	 0.006199,	 1907.896269,	 6.709353,	 697.776330,	 1244.425666,	 506.906745,	 3.763825 
0.209080,	 0.002036,	 0.006118,	 1909.632955,	 5.994915,	 695.259251,	 1223.809644,	 505.991640,	 3.774059 
0.213220,	 0.002050,	 0.006049,	 1911.150552,	 5.313558,	 693.057746,	 1206.014068,	 505.189906,	 3.783049 
0.217361,	 0.002064,	 0.005988,	 1912.467054,	 4.671317,	 691.146440,	 1190.740035,	 504.492822,	 3.790882 
0.221501,	 0.002077,	 0.005937,	 1913.600649,	 4.073196,	 689.499511,	 1177.707526,	 503.891387,	 3.797654 
0.225641,	 0.002089,	 0.005893,	 1914.569562,	 3.522375,	 688.090956,	 1166.656567,	 503.376432,	 3.803461 
0.229781,	 0.002101,	 0.005857,	 1915.392048,	 3.021924,	 686.894603,	 1157.339172,	 502.938643,	 3.808406 
0.233921,	 0.002113,	 0.005826,	 1916.086087,	 2.574459,	 685.884585,	 1149.520063,	 502.568743,	 3.812589 
0.238061,	 0.002124,	 0.005800,	 1916.669130,	 2.179981,	 685.035726,	 1142.984200,	 502.257654,	 3.816110 
0.242202,	 0.002134,	 0.005778,	 1917.157982,	 1.838765,	 684.323727,	 1137.526892,	 501.996573,	 3.819068 
0.246342,	 0.002144,	 0.005760,	 1917.568502,	 1.550228,	 683.725607,	 1132.958309,	 501.777145,	 3.821555 
0.250482,	 0.002154,	 0.005744,	 1917.915479,	 1.311957,	 683.219916,	 1129.107481,	 501.591551,	 3.823661 
0.254622,	 0.002164,	 0.005731,	 1918.212492,	 1.120805,	 682.786924,	 1125.819648,	 501.432583,	 3.825465 
0.258763,	 0.002173,	 0.005720,	 1918.471750,	 0.972619,	 682.408881,	 1122.958265,	 501.293748,	 3.827042 
0.262903,	 0.002181,	 0.005710,	 1918.704111,	 0.864335,	 682.069985,	 1120.398395,	 501.169258,	 3.828456 
0.267043,	 0.002189,	 0.005700,	 1918.919009,	 0.791425,	 681.756499,	 1118.035052,	 501.054073,	 3.829765 
0.271183,	 0.002197,	 0.005691,	 1919.124445,	 0.749112,	 681.456763,	 1115.779820,	 500.943916,	 3.831017 
0.275323,	 0.002205,	 0.005682,	 1919.327016,	 0.732600,	 681.161161,	 1113.560111,	 500.835255,	 3.832252 
0.279463,	 0.002212,	 0.005673,	 1919.531978,	 0.737226,	 680.862025,	 1111.318208,	 500.725270,	 3.833504 
0.283604,	 0.002219,	 0.005664,	 1919.743316,	 0.758448,	 680.553541,	 1109.010687,	 500.611824,	 3.834794 
0.287744,	 0.002225,	 0.005655,	 1919.963648,	 0.791262,	 680.231887,	 1106.610171,	 500.493506,	 3.836141 
0.291884,	 0.002231,	 0.005645,	 1920.194969,	 0.832853,	 679.894145,	 1104.093802,	 500.369240,	 3.837556 
0.296024,	 0.002237,	 0.005634,	 1920.438135,	 0.879584,	 679.539062,	 1101.452703,	 500.238561,	 3.839045 
0.300165,	 0.002242,	 0.005623,	 1920.692941,	 0.927513,	 679.166931,	 1098.690256,	 500.101572,	 3.840606 
0.304305,	 0.002248,	 0.005612,	 1920.958421,	 0.973348,	 678.779160,	 1095.817740,	 499.958785,	 3.842234 
0.308445,	 0.002253,	 0.005600,	 1921.232929,	 1.014285,	 678.378149,	 1092.853503,	 499.811079,	 3.843919 
0.312585,	 0.002258,	 0.005587,	 1921.514166,	 1.047725,	 677.967255,	 1089.822873,	 499.659688,	 3.845646 
0.316725,	 0.002262,	 0.005575,	 1921.799175,	 1.071007,	 677.550797,	 1086.758440,	 499.506201,	 3.847399 
0.320866,	 0.002266,	 0.005563,	 1922.084499,	 1.081831,	 677.133826,	 1083.697794,	 499.352477,	 3.849154 
0.325006,	 0.002270,	 0.005551,	 1922.366365,	 1.078760,	 676.721859,	 1080.680602,	 499.200551,	 3.850891 
0.329146,	 0.002273,	 0.005539,	 1922.640472,	 1.060096,	 676.321187,	 1077.752138,	 499.052746,	 3.852580 
0.333286,	 0.002277,	 0.005528,	 1922.901928,	 1.023553,	 675.938967,	 1074.964531,	 498.911708,	 3.854193 
0.337426,	 0.002280,	 0.005517,	 1923.145461,	 0.967249,	 675.582920,	 1072.373216,	 498.780291,	 3.855697 
0.341567,	 0.002283,	 0.005508,	 1923.365387,	 0.889477,	 675.261364,	 1070.037364,	 498.661575,	 3.857056 
0.345707,	 0.002286,	 0.005500,	 1923.555598,	 0.788486,	 674.983241,	 1068.020541,	 498.558871,	 3.858232 
0.349847,	 0.002289,	 0.005493,	 1923.709573,	 0.662659,	 674.758099,	 1066.390141,	 498.475717,	 3.859184 
0.353987,	 0.002291,	 0.005489,	 1923.820397,	 0.510360,	 674.596059,	 1065.217924,	 498.415860,	 3.859870 
0.358127,	 0.002293,	 0.005486,	 1923.880803,	 0.330171,	 674.507753,	 1064.579253,	 498.383237,	 3.860244 
0.362267,	 0.002295,	 0.005486,	 1923.883056,	 0.120667,	 674.504493,	 1064.554307,	 498.382033,	 3.860258 
0.366408,	 0.002296,	 0.005489,	 1923.818956,	 -0.119684,	 674.598258,	 1065.228867,	 498.416672,	 3.859861 
0.370548,	 0.002298,	 0.005495,	 1923.680098,	 -0.391944,	 674.801318,	 1066.692130,	 498.491680,	 3.859001 
0.374688,	 0.002299,	 0.005504,	 1923.457886,	 -0.696717,	 675.126198,	 1069.036499,	 498.611665,	 3.857627 
0.378828,	 0.002301,	 0.005517,	 1923.143571,	 -1.034247,	 675.585628,	 1072.357777,	 498.781291,	 3.855686 
0.382969,	 0.002302,	 0.005535,	 1922.728502,	 -1.404014,	 676.192162,	 1076.753163,	 499.005141,	 3.853125 
0.387109,	 0.002303,	 0.005557,	 1922.204544,	 -1.804060,	 676.957573,	 1082.317250,	 499.287484,	 3.849897 
0.391249,	 0.002303,	 0.005585,	 1921.564010,	 -2.231812,	 677.892934,	 1089.143527,	 499.632301,	 3.845959 
0.395389,	 0.002303,	 0.005617,	 1920.798971,	 -2.686456,	 679.009630,	 1097.333803,	 500.043654,	 3.841266 
0.399529,	 0.002304,	 0.005656,	 1919.903904,	 -3.161631,	 680.315491,	 1106.967405,	 500.524261,	 3.835791 
0.403670,	 0.002304,	 0.005700,	 1918.874467,	 -3.651207,	 681.816579,	 1118.116947,	 501.076151,	 3.829514 
0.407810,	 0.002305,	 0.005751,	 1917.708287,	 -4.147597,	 683.516041,	 1130.839190,	 501.700240,	 3.822427 
0.411950,	 0.002305,	 0.005807,	 1916.405403,	 -4.641687,	 685.413471,	 1145.169775,	 502.396114,	 3.814542 
0.002070,	 0.001648,	 0.044550,	 1532.900651,	 0.000471,	 1188.332241,	 15230.513130,	 661.513777,	 2.317262 
0.006210,	 0.001670,	 0.044549,	 1532.908835,	 0.006062,	 1188.322703,	 15229.953836,	 661.511123,	 2.317284 
0.010351,	 0.001698,	 0.044541,	 1532.955686,	 0.035861,	 1188.268093,	 15226.751287,	 661.495922,	 2.317408 
0.014491,	 0.001728,	 0.044514,	 1533.131225,	 0.139014,	 1188.063467,	 15214.750967,	 661.438964,	 2.317873 
0.018631,	 0.001759,	 0.044437,	 1533.624453,	 0.404779,	 1187.488350,	 15181.037296,	 661.278850,	 2.319180 
0.022771,	 0.001793,	 0.044262,	 1534.738956,	 0.950519,	 1186.187970,	 15104.929007,	 660.916678,	 2.322137 
0.026911,	 0.001827,	 0.043930,	 1536.863638,	 1.889113,	 1183.705841,	 14960.208950,	 660.224823,	 2.327790 
0.031052,	 0.001862,	 0.043379,	 1540.394116,	 3.286571,	 1179.572754,	 14721.028630,	 659.071178,	 2.337225 
0.035192,	 0.001898,	 0.042565,	 1545.638934,	 5.136176,	 1173.413376,	 14369.073078,	 657.348189,	 2.351338 
0.039332,	 0.001935,	 0.041468,	 1552.752090,	 7.361393,	 1165.023909,	 13898.747370,	 654.994077,	 2.370662 
0.043472,	 0.001973,	 0.040102,	 1561.716142,	 9.842481,	 1154.393746,	 13318.247029,	 651.999010,	 2.395321 
0.047612,	 0.002011,	 0.038505,	 1572.366268,	 12.446413,	 1141.681925,	 12647.049734,	 648.399269,	 2.425073 
0.051753,	 0.002049,	 0.036731,	 1584.446052,	 15.059471,	 1127.157002,	 11910.815688,	 644.261471,	 2.459433 
0.055893,	 0.002088,	 0.034839,	 1597.653716,	 17.592070,	 1111.147360,	 11136.947329,	 639.669705,	 2.497774 
0.060033,	 0.002128,	 0.032887,	 1611.683454,	 19.976805,	 1093.995299,	 10350.680643,	 634.713421,	 2.539425 
0.064173,	 0.002167,	 0.030926,	 1626.241284,	 22.161572,	 1076.039740,	 9573.759188,	 629.483149,	 2.583695 
0.068313,	 0.002207,	 0.028997,	 1641.072332,	 24.120425,	 1057.582680,	 8822.711573,	 624.061109,	 2.629950 
0.072454,	 0.002247,	 0.027132,	 1655.959854,	 25.840138,	 1038.889066,	 8109.392669,	 618.521131,	 2.677615 
0.076594,	 0.002287,	 0.025353,	 1670.731470,	 27.321795,	 1020.176893,	 7441.153451,	 612.925507,	 2.726196 
0.080734,	 0.002327,	 0.023674,	 1685.252460,	 28.573067,	 1001.623341,	 6821.875626,	 607.326416,	 2.775270 
0.084874,	 0.002367,	 0.022102,	 1699.421851,	 29.606574,	 983.367562,	 6252.741974,	 601.766341,	 2.824485 
0.089014,	 0.002407,	 0.020639,	 1713.165363,	 30.435501,	 965.517890,	 5733.081393,	 596.279826,	 2.873543 
0.093155,	 0.002446,	 0.019286,	 1726.433753,	 31.077881,	 948.152280,	 5260.805326,	 590.893211,	 2.922209 
0.097295,	 0.002486,	 0.018039,	 1739.191878,	 31.546143,	 931.331561,	 4833.220511,	 585.628379,	 2.970276 
0.101435,	 0.002526,	 0.016892,	 1751.421151,	 31.856248,	 915.095133,	 4447.064117,	 580.501139,	 3.017584 
0.105575,	 0.002565,	 0.015840,	 1763.111274,	 32.019658,	 899.471391,	 4099.004089,	 575.524254,	 3.063993 
0.109715,	 0.002604,	 0.014877,	 1774.261000,	 32.048644,	 884.476147,	 3785.655758,	 570.706759,	 3.109391 
0.113856,	 0.002643,	 0.013997,	 1784.874669,	 31.954482,	 870.116990,	 3503.759818,	 566.055192,	 3.153687 
0.117996,	 0.002682,	 0.013192,	 1794.959704,	 31.745465,	 856.396544,	 3250.283217,	 561.574535,	 3.196798 
0.122136,	 0.002720,	 0.012458,	 1804.526771,	 31.429480,	 843.312088,	 3022.398570,	 557.268014,	 3.238658 
0.126276,	 0.002758,	 0.011787,	 1813.588570,	 31.015208,	 830.857132,	 2817.512458,	 553.137535,	 3.279209 
0.130416,	 0.002795,	 0.011176,	 1822.158853,	 30.508324,	 819.022845,	 2633.276050,	 549.184108,	 3.318403 
0.134557,	 0.002832,	 0.010618,	 1830.251571,	 29.913111,	 807.799214,	 2467.583529,	 545.408205,	 3.356194 
0.138697,	 0.002869,	 0.010110,	 1837.881278,	 29.234922,	 797.174478,	 2318.532308,	 541.809539,	 3.392546 
0.142837,	 0.002905,	 0.009646,	 1845.061741,	 28.477672,	 787.137170,	 2184.441994,	 538.387743,	 3.427421 
0.146977,	 0.002940,	 0.009225,	 1851.806257,	 27.644533,	 777.675721,	 2063.820908,	 535.142230,	 3.460786 
0.151117,	 0.002975,	 0.008841,	 1858.128053,	 26.739245,	 768.777929,	 1955.334331,	 532.072002,	 3.492611 
0.155257,	 0.003010,	 0.008492,	 1864.040430,	 25.767222,	 760.430785,	 1857.782907,	 529.175585,	 3.522873 
0.159398,	 0.003044,	 0.008175,	 1869.555514,	 24.732217,	 752.622355,	 1770.120907,	 526.451673,	 3.551549 
0.163538,	 0.003077,	 0.007888,	 1874.685427,	 23.638854,	 745.340123,	 1691.411854,	 523.898559,	 3.578621 
0.167678,	 0.003110,	 0.007628,	 1879.442460,	 22.493360,	 738.570783,	 1620.812838,	 521.514053,	 3.604077 
0.171818,	 0.003141,	 0.007393,	 1883.838575,	 21.302056,	 732.301006,	 1557.577141,	 519.295751,	 3.627911 
0.175959,	 0.003173,	 0.007181,	 1887.885904,	 20.072258,	 726.516762,	 1501.034117,	 517.240798,	 3.650123 
0.180099,	 0.003203,	 0.006991,	 1891.596880,	 18.812420,	 721.203159,	 1450.578915,	 515.345827,	 3.670720 
0.184239,	 0.003233,	 0.006821,	 1894.984127,	 17.531236,	 716.344653,	 1405.669447,	 513.607037,	 3.689718 
0.188379,	 0.003262,	 0.006668,	 1898.061036,	 16.238982,	 711.924230,	 1365.807789,	 512.019900,	 3.707142 
0.192519,	 0.003290,	 0.006533,	 1900.841452,	 14.946295,	 707.923904,	 1330.542130,	 510.579345,	 3.723026 
0.196659,	 0.003317,	 0.006413,	 1903.339910,	 13.664299,	 704.324404,	 1299.457433,	 509.279649,	 3.737414 
0.200800,	 0.003343,	 0.006307,	 1905.571743,	 12.404912,	 701.105040,	 1272.167836,	 508.114394,	 3.750360 
0.204940,	 0.003369,	 0.006214,	 1907.552948,	 11.179917,	 698.243931,	 1248.315749,	 507.076563,	 3.761928 
0.209080,	 0.003393,	 0.006133,	 1909.300262,	 10.000382,	 695.717923,	 1227.566831,	 506.158518,	 3.772191 
0.213220,	 0.003417,	 0.006063,	 1910.831055,	 8.875824,	 693.502771,	 1209.608606,	 505.352076,	 3.781228 
0.217361,	 0.003439,	 0.006002,	 1912.163102,	 7.815856,	 691.573470,	 1194.145300,	 504.648650,	 3.789129 
0.221501,	 0.003461,	 0.005950,	 1913.314333,	 6.828529,	 689.904657,	 1180.900431,	 504.039407,	 3.795986 
0.225641,	 0.003482,	 0.005905,	 1914.302834,	 5.919163,	 688.470617,	 1169.616522,	 503.515285,	 3.801894 
0.229781,	 0.003502,	 0.005867,	 1915.146541,	 5.092602,	 687.245743,	 1160.049602,	 503.067178,	 3.806953 
0.233921,	 0.003521,	 0.005835,	 1915.862917,	 4.352831,	 686.205021,	 1151.969988,	 502.686126,	 3.811261 
0.238061,	 0.003539,	 0.005808,	 1916.469181,	 3.699955,	 685.323710,	 1145.166035,	 502.363216,	 3.814915 
0.242202,	 0.003557,	 0.005785,	 1916.981617,	 3.134147,	 684.578357,	 1139.438626,	 502.089959,	 3.818009 
0.246342,	 0.003574,	 0.005766,	 1917.415490,	 2.654315,	 683.946932,	 1134.603919,	 501.858352,	 3.820634 
0.250482,	 0.003590,	 0.005750,	 1917.785211,	 2.256647,	 683.408597,	 1130.495165,	 501.660807,	 3.822875 
0.254622,	 0.003607,	 0.005736,	 1918.104027,	 1.936079,	 682.944172,	 1126.961395,	 501.490321,	 3.824810 
0.258763,	 0.003621,	 0.005723,	 1918.383908,	 1.685889,	 682.536294,	 1123.869073,	 501.340545,	 3.826510 
0.262903,	 0.003635,	 0.005712,	 1918.635246,	 1.501011,	 682.169878,	 1121.097284,	 501.205956,	 3.828039 
0.267043,	 0.003648,	 0.005702,	 1918.867283,	 1.374224,	 681.831490,	 1118.543045,	 501.081629,	 3.829451 
0.271183,	 0.003662,	 0.005693,	 1919.087901,	 1.297857,	 681.509661,	 1116.119221,	 500.963359,	 3.830796 
0.275323,	 0.003675,	 0.005683,	 1919.303623,	 1.264149,	 681.194896,	 1113.753919,	 500.847657,	 3.832111 
0.279463,	 0.003687,	 0.005674,	 1919.519681,	 1.265519,	 680.879572,	 1111.389578,	 500.731722,	 3.833430 
0.283604,	 0.003699,	 0.005664,	 1919.740074,	 1.294549,	 680.557856,	 1108.982448,	 500.613410,	 3.834776 
0.287744,	 0.003709,	 0.005654,	 1919.967478,	 1.343135,	 680.225849,	 1106.504498,	 500.491285,	 3.836167 
0.291884,	 0.003718,	 0.005644,	 1920.203968,	 1.406454,	 679.880518,	 1103.931665,	 500.364226,	 3.837613 
0.296024,	 0.003728,	 0.005633,	 1920.450501,	 1.478542,	 679.520466,	 1101.253900,	 500.231717,	 3.839123 
0.300165,	 0.003737,	 0.005622,	 1920.706984,	 1.553005,	 679.145832,	 1098.473325,	 500.093803,	 3.840695 
0.304305,	 0.003747,	 0.005611,	 1920.972572,	 1.624392,	 678.757848,	 1095.599782,	 499.950936,	 3.842324 