TITLE = "Final State"
VARIABLES = "X", "Y", "rho", "u", "v", "T", "p", "c", "M"
ZONE I=101, J=51, DATAPACKING=POINT
0.0000000000000000e+00,	 0.0000000000000000e+00,	 4.4559218391384062e-02,	 1.5323364082730568e+03,	 -8.4518878410568177e-01,	 1.1892174690659433e+03,	 1.5245047503271020e+04,	 6.6176012327419278e+02,	 2.3155469594954243e+00 
1.1532066082873320e-01,	 0.0000000000000000e+00,	 4.3378047268823015e-02,	 1.5408706712774724e+03,	 -1.4118769666381481e-02,	 1.1761852530985316e+03,	 1.4678296802140439e+04,	 6.5812413623997111e+02,	 2.3413070369148574e+00 
2.3064132165746640e-01,	 0.0000000000000000e+00,	 4.2104129910899422e-02,	 1.5501804417409032e+03,	 -1.4167428947365890e-03,	 1.1618858430256128e+03,	 1.4074017754813471e+04,	 6.5411134792063285e+02,	 2.3699029938395793e+00 
3.4596198248619958e-01,	 0.0000000000000000e+00,	 4.0889702258632386e-02,	 1.5589796109252698e+03,	 -4.5051929318630224e-03,	 1.1482894248772027e+03,	 1.3508130601961380e+04,	 6.5027287144229160e+02,	 2.3974237268640706e+00 
4.6128264331493279e-01,	 0.0000000000000000e+00,	 3.9736819943683971e-02,	 1.5673960155623445e+03,	 -8.0859639238987091e-03,	 1.1352220486190863e+03,	 1.2977883266990792e+04,	 6.4656227665044332e+02,	 2.4241996048751804e+00 
5.7660330414366601e-01,	 0.0000000000000000e+00,	 3.8644916471015492e-02,	 1.5754638849458750e+03,	 -4.9822851216164699e-03,	 1.1226331488481990e+03,	 1.2481310065040181e+04,	 6.4296729749793610e+02,	 2.4503017355385950e+00 
6.9192396497239927e-01,	 0.0000000000000000e+00,	 3.7600638743290143e-02,	 1.5832638815904484e+03,	 1.0828627500725219e-03,	 1.1103971834176873e+03,	 1.2011673301534040e+04,	 6.3945373635206954e+02,	 2.4759631410130778e+00 
8.0724462580113254e-01,	 0.0000000000000000e+00,	 3.6603780745594158e-02,	 1.5907920517751338e+03,	 -5.3694820742897775e-03,	 1.0985264138518451e+03,	 1.1568215934966023e+04,	 6.3602649214681230e+02,	 2.5011411811082196e+00 
9.2256528662986570e-01,	 0.0000000000000000e+00,	 3.5652436365522497e-02,	 1.5980620606570017e+03,	 -4.3922605895155842e-03,	 1.0870128041632129e+03,	 1.1149459405897060e+04,	 6.3268462898405971e+02,	 2.5258430305619144e+00 
1.0378859474585989e+00,	 0.0000000000000000e+00,	 3.4742511513873725e-02,	 1.6050938285705747e+03,	 -4.1959312764079382e-03,	 1.0758273092721142e+03,	 1.0753100678077133e+04,	 6.2942101035359167e+02,	 2.5501116139646509e+00 
1.1532066082873320e+00,	 0.0000000000000000e+00,	 3.3870491804563266e-02,	 1.6119075424989601e+03,	 -2.6760189555528058e-03,	 1.0649425529729754e+03,	 1.0377138690033180e+04,	 6.2622881046508303e+02,	 2.5739913519853257e+00 
1.2685272691160654e+00,	 0.0000000000000000e+00,	 3.3032615498290466e-02,	 1.6185244360251309e+03,	 -1.0399473172750806e-03,	 1.0543258182482145e+03,	 1.0019539027703304e+04,	 6.2309945926466821e+02,	 2.5975378600641332e+00 
1.3838479299447985e+00,	 0.0000000000000000e+00,	 3.2226020071492306e-02,	 1.6249551306220915e+03,	 1.3402243464012420e-03,	 1.0439652153943441e+03,	 9.6788250332257121e+03,	 6.2003037760917016e+02,	 2.6207669644968878e+00 
1.4991685907735317e+00,	 0.0000000000000000e+00,	 3.1448606802448632e-02,	 1.6311847400401675e+03,	 1.0051290319812556e-02,	 1.0338908496797867e+03,	 9.3541868300599253e+03,	 6.1703144840084406e+02,	 2.6436006532546519e+00 
1.6144892516022651e+00,	 0.0000000000000000e+00,	 3.0718234102838436e-02,	 1.6370462482814703e+03,	 -4.3913548159091320e-03,	 1.0243773200173432e+03,	 9.0528669542900043e+03,	 6.1418602556128099e+02,	 2.6653915591637349e+00 
1.7298099124309982e+00,	 0.0000000000000000e+00,	 3.0086286778026026e-02,	 1.6421973013597849e+03,	 -7.0111392555984309e-02,	 1.0159899029305442e+03,	 8.7940295409655337e+03,	 6.1166643516711576e+02,	 2.6847922469503649e+00 
1.8451305732597314e+00,	 0.0000000000000000e+00,	 2.9575378097729286e-02,	 1.6465011796798251e+03,	 -1.5322358407865933e-01,	 1.0089767257963017e+03,	 8.5850215831979767e+03,	 6.0955167325565014e+02,	 2.7011675286120873e+00 
1.9604512340884646e+00,	 0.0000000000000000e+00,	 2.9072301957720877e-02,	 1.6505757597182055e+03,	 -3.1306153893820732e-01,	 1.0023245777230600e+03,	 8.3833526996454366e+03,	 6.0753897398210211e+02,	 2.7168228872436448e+00 
2.0757718949171977e+00,	 0.0000000000000000e+00,	 2.8426350996650536e-02,	 1.6553885112047894e+03,	 -7.0795874510737744e-01,	 9.9444281561487765e+02,	 8.1326272289153567e+03,	 6.0514557343428976e+02,	 2.7355213939619492e+00 
2.1910925557459309e+00,	 0.0000000000000000e+00,	 2.7566739517397860e-02,	 1.6624333042275957e+03,	 -7.8590354301429333e-01,	 9.8288723211282695e+02,	 7.7950523030731010e+03,	 6.0161935584871139e+02,	 2.7632646354064385e+00 
2.3064132165746640e+00,	 0.0000000000000000e+00,	 2.6326469402678805e-02,	 1.6738342975611258e+03,	 1.3903726954390230e+00,	 9.6406273232283274e+02,	 7.3017650201724191e+03,	 5.9583032211322870e+02,	 2.8092475540383912e+00 
2.4217338774033976e+00,	 0.0000000000000000e+00,	 2.4567336154417745e-02,	 1.6899824718217324e+03,	 2.6541254749406327e+00,	 9.3716572094555522e+02,	 6.6237571398262780e+03,	 5.8745979715398687e+02,	 2.8767663151862908e+00 
2.5370545382321308e+00,	 0.0000000000000000e+00,	 2.2580231941132546e-02,	 1.7083919720418894e+03,	 1.2150116402544606e+00,	 9.0619521584901395e+02,	 5.8868111140986484e+03,	 5.7767135948663542e+02,	 2.9573777132024506e+00 
2.6523751990608639e+00,	 0.0000000000000000e+00,	 2.0710774105710171e-02,	 1.7264509684525947e+03,	 7.2707663861417604e-01,	 8.7544986312840479e+02,	 5.2162397993053037e+03,	 5.6778719401613409e+02,	 3.0406658335162504e+00 
2.7676958598895971e+00,	 0.0000000000000000e+00,	 1.8977249003943895e-02,	 1.7438958700169615e+03,	 8.6024601967248593e-01,	 8.4541866600868570e+02,	 4.6156729208708184e+03,	 5.5796360264937891e+02,	 3.1254656646270349e+00 
2.8830165207183303e+00,	 0.0000000000000000e+00,	 1.7365825878421566e-02,	 1.7607690684087897e+03,	 6.9980683199160598e-01,	 8.1596811656084037e+02,	 4.0766044005687959e+03,	 5.4815899899299814e+02,	 3.2121505087217126e+00 
2.9983371815470634e+00,	 0.0000000000000000e+00,	 1.5917264039535188e-02,	 1.7765793200193139e+03,	 3.6654221043790791e-01,	 7.8803128587750496e+02,	 3.6086255348031218e+03,	 5.3869343577919801e+02,	 3.2979413518597824e+00 
3.1136578423757966e+00,	 0.0000000000000000e+00,	 1.4641955900999246e-02,	 1.7911810224039405e+03,	 2.9670416671621869e-01,	 7.6214418260160960e+02,	 3.2104519254423481e+03,	 5.2977141721069211e+02,	 3.3810450862162913e+00 
3.2289785032045302e+00,	 0.0000000000000000e+00,	 1.3505881827447474e-02,	 1.8047403341442166e+03,	 3.6292153531406157e-01,	 7.3792619767707288e+02,	 2.8672516527988764e+03,	 5.2128642801903561e+02,	 3.4620896950896496e+00 
3.3442991640332633e+00,	 0.0000000000000000e+00,	 1.2484817893587205e-02,	 1.8173537929804133e+03,	 3.0720938567230061e-01,	 7.1508970748701677e+02,	 2.5684592312795571e+03,	 5.1315695228615687e+02,	 3.5415165103963178e+00 
3.4596198248619965e+00,	 0.0000000000000000e+00,	 1.1572281893098689e-02,	 1.8290838964466438e+03,	 1.9267055863328419e-01,	 6.9370506411881252e+02,	 2.3095310563994785e+03,	 5.0542577536963751e+02,	 3.6188971669611654e+00 
3.5749404856907296e+00,	 0.0000000000000000e+00,	 1.0758946576503378e-02,	 1.8399840458344795e+03,	 1.3894662124642743e-01,	 6.7377342622231981e+02,	 2.0855161955678659e+03,	 4.9811187186414679e+02,	 3.6939172804590283e+00 
3.6902611465194628e+00,	 0.0000000000000000e+00,	 1.0030456630865259e-02,	 1.8501134782172135e+03,	 1.1420903599610988e-01,	 6.5513903180204488e+02,	 1.8905323642561243e+03,	 4.9117549425128249e+02,	 3.7667055938173810e+00 
3.8055818073481960e+00,	 0.0000000000000000e+00,	 9.3768184253635277e-03,	 1.8595367966432407e+03,	 9.0925555796103730e-02,	 6.3767392538569482e+02,	 1.7202204361173817e+03,	 4.8458423715318150e+02,	 3.8373860647852900e+00 
3.9209024681769291e+00,	 0.0000000000000000e+00,	 8.7938568137325736e-03,	 1.8682544762529469e+03,	 1.0205373567491094e-01,	 6.2143445203717056e+02,	 1.5721886405518308e+03,	 4.7837405454175439e+02,	 3.9054260182023106e+00 
4.0362231290056627e+00,	 0.0000000000000000e+00,	 8.2713514606545593e-03,	 1.8763339838337470e+03,	 1.1571764172109145e-01,	 6.0634739664397216e+02,	 1.4428724120001118e+03,	 4.7253144270916420e+02,	 3.9708129826122120e+00 
4.1515437898343954e+00,	 0.0000000000000000e+00,	 7.8007024030944845e-03,	 1.8838456159287757e+03,	 1.3013477272165375e-01,	 5.9229559491381610e+02,	 1.3292361688105195e+03,	 4.6702400612809595e+02,	 4.0337233112314204e+00 
4.2668644506631290e+00,	 0.0000000000000000e+00,	 7.3751344646535138e-03,	 1.8908477413538990e+03,	 1.5255645833889897e-01,	 5.7915773414334922e+02,	 1.2288439641830241e+03,	 4.6181537090281006e+02,	 4.0943802797461988e+00 
4.3821851114918617e+00,	 0.0000000000000000e+00,	 6.9896866644230376e-03,	 1.8973772786566487e+03,	 1.8838281715916017e-01,	 5.6686279531530931e+02,	 1.1398969694220941e+03,	 4.5688713625327301e+02,	 4.1528358700752008e+00 
4.4975057723205953e+00,	 0.0000000000000000e+00,	 6.6405328328487901e-03,	 1.9034589383646726e+03,	 2.4413062561271470e-01,	 5.5537388315310966e+02,	 1.0610071698313216e+03,	 4.5223344758906740e+02,	 4.2090185150346118e+00 
4.6128264331493281e+00,	 0.0000000000000000e+00,	 6.3253432861210563e-03,	 1.9090962621189883e+03,	 3.4952141662702019e-01,	 5.4469382612209233e+02,	 9.9121186169524651e+02,	 4.4786402614115087e+02,	 4.2626694324247243e+00 
4.7281470939780617e+00,	 0.0000000000000000e+00,	 6.0431265099487440e-03,	 1.9142708766102710e+03,	 4.9476983590480828e-01,	 5.3486844557038899e+02,	 9.2990503906197944e+02,	 4.4380627897056678e+02,	 4.3133029685622919e+00 
4.8434677548067953e+00,	 0.0000000000000000e+00,	 5.7905810865691463e-03,	 1.9190135896118118e+03,	 7.7307313917729115e-01,	 5.2584992811315260e+02,	 8.7601976278241170e+02,	 4.4004882227069004e+02,	 4.3609109903430401e+00 
4.9587884156355280e+00,	 0.0000000000000000e+00,	 5.5678001707698066e-03,	 1.9232930813853341e+03,	 1.1649896464830012e+00,	 5.1770506549110269e+02,	 8.2927007133499524e+02,	 4.3662757585031954e+02,	 4.4048831099875265e+00 
5.0741090764642616e+00,	 0.0000000000000000e+00,	 5.3707713523015264e-03,	 1.9270730082654902e+03,	 1.5604845756655843e+00,	 5.1050625926094631e+02,	 7.8880139953994433e+02,	 4.3358124611819596e+02,	 4.4445502598060154e+00 
5.1894297372929943e+00,	 0.0000000000000000e+00,	 5.1900957730518279e-03,	 1.9303340265314478e+03,	 1.6278808269339171e+00,	 5.0429257080637393e+02,	 7.5298769579513009e+02,	 4.3093447439195035e+02,	 4.4794158454453976e+00 
5.3047503981217279e+00,	 0.0000000000000000e+00,	 5.0257317585395995e-03,	 1.9330850538369759e+03,	 1.0803031278527446e+00,	 4.9904927122041204e+02,	 7.2156036268736489e+02,	 4.2868833528646871e+02,	 4.5093024385850704e+00 
5.4200710589504606e+00,	 0.0000000000000000e+00,	 4.8920647125234220e-03,	 1.9353208283732433e+03,	 1.6015767023866911e-01,	 4.9478595332420480e+02,	 6.9636910096649467e+02,	 4.2685329129840045e+02,	 4.5339250614967153e+00 
5.5353917197791942e+00,	 0.0000000000000000e+00,	 4.8088031129981789e-03,	 1.9370473891858605e+03,	 -6.7602704014245707e-01,	 4.9148741831981789e+02,	 6.7995369521070018e+02,	 4.2542808410307794e+02,	 4.5531726266637529e+00 
5.6507123806079278e+00,	 0.0000000000000000e+00,	 4.7739274331181341e-03,	 1.9382877102370235e+03,	 -7.6044236395250464e-01,	 4.8911105931299943e+02,	 6.7175859742660884e+02,	 4.2439835800671534e+02,	 4.5671426923318510e+00 
5.7660330414366605e+00,	 0.0000000000000000e+00,	 4.7591858020375639e-03,	 1.9392015068757307e+03,	 -4.7420182287274615e-01,	 4.8735367898210006e+02,	 6.6727806165222125e+02,	 4.2363523840258046e+02,	 4.5775265819890993e+00 
5.8813537022653941e+00,	 0.0000000000000000e+00,	 4.7430352404231524e-03,	 1.9399139023375637e+03,	 -3.0761064478205574e-01,	 4.8604431501984419e+02,	 6.6322693687702963e+02,	 4.2306576923655609e+02,	 4.5853719865519462e+00 
5.9966743630941268e+00,	 0.0000000000000000e+00,	 4.7130424938224020e-03,	 1.9406222825701302e+03,	 -3.6688532943772828e-01,	 4.8490175812922064e+02,	 6.5748379266837026e+02,	 4.2256822086413302e+02,	 4.5924473763845528e+00 
6.1119950239228604e+00,	 0.0000000000000000e+00,	 4.6742683148761968e-03,	 1.9413396108157101e+03,	 -5.2026637539260445e-01,	 4.8368517994539400e+02,	 6.5043867539340522e+02,	 4.2203779369434966e+02,	 4.5999190345869261e+00 
6.2273156847515931e+00,	 0.0000000000000000e+00,	 4.6285240236175005e-03,	 1.9421385486657318e+03,	 -7.1349014362219854e-01,	 4.8215275939368371e+02,	 6.4203265293986431e+02,	 4.2136870925516934e+02,	 4.6091193699632074e+00 
6.3426363455803267e+00,	 0.0000000000000000e+00,	 4.5760940524928687e-03,	 1.9431592099489253e+03,	 -8.6708217030070589e-01,	 4.8019452363434482e+02,	 6.3218193618301882e+02,	 4.2051215624589344e+02,	 4.6209351490629098e+00 
6.4579570064090603e+00,	 0.0000000000000000e+00,	 4.5204562025356766e-03,	 1.9444119327607928e+03,	 -7.6037550825234246e-01,	 4.7778820551805006e+02,	 6.2136620354403794e+02,	 4.1945721202054045e+02,	 4.6355433300800595e+00 
6.5732776672377931e+00,	 0.0000000000000000e+00,	 4.4603112441795375e-03,	 1.9459028925796022e+03,	 -2.8254605393193910e-01,	 4.7491807326315075e+02,	 6.0941592645413607e+02,	 4.1819544885758006e+02,	 4.6530944284742999e+00 
6.6885983280665267e+00,	 0.0000000000000000e+00,	 4.3908101291953439e-03,	 1.9476768821498599e+03,	 3.4629612537368182e-01,	 4.7149530859331946e+02,	 5.9559627200044361e+02,	 4.1668574324336316e+02,	 4.6742105879969627e+00 
6.8039189888952594e+00,	 0.0000000000000000e+00,	 4.3084921613955295e-03,	 1.9497271648292340e+03,	 8.7702580589016077e-01,	 4.6753383087618954e+02,	 5.7951981051966061e+02,	 4.1493156546688584e+02,	 4.6989130843471427e+00 
6.9192396497239930e+00,	 0.0000000000000000e+00,	 4.2108657636836331e-03,	 1.9518907763241100e+03,	 8.9824310797818097e-01,	 4.6311433582050620e+02,	 5.6103448829883348e+02,	 4.1296578022957272e+02,	 4.7265199114581371e+00 
7.0345603105527257e+00,	 0.0000000000000000e+00,	 4.1106329563464009e-03,	 1.9539797893569612e+03,	 5.3673234138171066e-01,	 4.5876175976641650e+02,	 5.4253260977283401e+02,	 4.1102057128707236e+02,	 4.7539709678152704e+00 
7.1498809713814593e+00,	 0.0000000000000000e+00,	 4.0218967577015947e-03,	 1.9559529258840348e+03,	 5.0186732392075672e-01,	 4.5486163063257993e+02,	 5.2630822782856831e+02,	 4.0926971166616408e+02,	 4.7791295923339243e+00 
7.2652016322101920e+00,	 0.0000000000000000e+00,	 3.9402358621086243e-03,	 1.9578643018160246e+03,	 4.8066749455369528e-01,	 4.5114797150000709e+02,	 5.1141229626758320e+02,	 4.0759557269560372e+02,	 4.8034485455060629e+00 
7.3805222930389256e+00,	 0.0000000000000000e+00,	 3.8619158770178330e-03,	 1.9597181329828288e+03,	 4.3467319090368228e-01,	 4.4754304655604153e+02,	 4.9724172088843659e+02,	 4.0596384811599467e+02,	 4.8273219161845082e+00 
7.4958429538676592e+00,	 0.0000000000000000e+00,	 3.7878562094529047e-03,	 1.9614900722083894e+03,	 4.1135280011249775e-01,	 4.4409440021453645e+02,	 4.8394802171303536e+02,	 4.0439669915955511e+02,	 4.8504107956820706e+00 
7.6111636146963919e+00,	 0.0000000000000000e+00,	 3.7174399699851221e-03,	 1.9631927363407731e+03,	 3.9317607414445988e-01,	 4.4077767751550584e+02,	 4.7140425027009678e+02,	 4.0288374894981428e+02,	 4.8728517365855675e+00 
7.7264842755251255e+00,	 0.0000000000000000e+00,	 3.6504025122930783e-03,	 1.9648304668952574e+03,	 3.7671726953920515e-01,	 4.3758463143392686e+02,	 4.5954998123667923e+02,	 4.0142182758320450e+02,	 4.8946777877992451e+00 
7.8418049363538582e+00,	 0.0000000000000000e+00,	 3.5864076635980608e-03,	 1.9664095467950906e+03,	 3.5067340867030361e-01,	 4.3450313805714359e+02,	 4.4831421411589105e+02,	 4.0000591391470590e+02,	 4.9159512638668312e+00 
7.9571255971825918e+00,	 0.0000000000000000e+00,	 3.5250934043100728e-03,	 1.9679372257964155e+03,	 3.0963585081150868e-01,	 4.3151920971894737e+02,	 4.3762356549715747e+02,	 3.9863003745710938e+02,	 4.9367510353939545e+00 
8.0724462580113254e+00,	 0.0000000000000000e+00,	 3.4661177676299929e-03,	 1.9694206241226775e+03,	 2.5787309273333969e-01,	 4.2861922885901407e+02,	 4.2741022008061350e+02,	 3.9728830314457031e+02,	 4.9571573726619000e+00 
8.1877669188400581e+00,	 0.0000000000000000e+00,	 3.4091153537097246e-03,	 1.9708678444115344e+03,	 2.1443449081919153e-01,	 4.2578766433417178e+02,	 4.1760405710136752e+02,	 3.9597383627972692e+02,	 4.9772678785896254e+00 
8.3030875796687909e+00,	 0.0000000000000000e+00,	 3.3540089085493611e-03,	 1.9722797872923213e+03,	 1.8191407078260147e-01,	 4.2302296196132693e+02,	 4.0818598675096683e+02,	 3.9468618426119497e+02,	 4.9970834407939888e+00 
8.4184082404975253e+00,	 0.0000000000000000e+00,	 3.3006875716781875e-03,	 1.9736583139682728e+03,	 1.5819347718993004e-01,	 4.2032164727794077e+02,	 3.9913159981573205e+02,	 3.9342398432071667e+02,	 5.0166192173458182e+00 
8.5337289013262581e+00,	 0.0000000000000000e+00,	 3.2490529419397602e-03,	 1.9750050729919801e+03,	 1.4110097375570940e-01,	 4.1768065416643634e+02,	 3.9041912690637531e+02,	 3.9218604271961078e+02,	 5.0358882339021740e+00 
8.6490495621549908e+00,	 0.0000000000000000e+00,	 3.1990085631462438e-03,	 1.9763217561951451e+03,	 1.2837604065976072e-01,	 4.1509680957498256e+02,	 3.8202759592773390e+02,	 3.9097109557335739e+02,	 5.0549050370752928e+00 
8.7643702229837235e+00,	 0.0000000000000000e+00,	 3.1504640251687459e-03,	 1.9776099660983282e+03,	 1.1838138403715992e-01,	 4.1256711027305096e+02,	 3.7393753899443243e+02,	 3.8977793923680161e+02,	 5.0736836813129020e+00 
8.8796908838124580e+00,	 0.0000000000000000e+00,	 3.1033457722202543e-03,	 1.9788709201387328e+03,	 1.1028847919293638e-01,	 4.1008925861713345e+02,	 3.6613268336008036e+02,	 3.8860568578954843e+02,	 5.0922335816871120e+00 
8.9950115446411907e+00,	 0.0000000000000000e+00,	 3.0576033479969146e-03,	 1.9801052810624913e+03,	 1.0448102815720661e-01,	 4.0766208127759967e+02,	 3.5860092057304632e+02,	 3.8745396737530137e+02,	 5.1105562222853269e+00 
9.1103322054699234e+00,	 0.0000000000000000e+00,	 3.0132040686396484e-03,	 1.9813132531566241e+03,	 1.0193340423093877e-01,	 4.0528530800353678e+02,	 3.5133332274192588e+02,	 3.8632283885000828e+02,	 5.1286464493702439e+00 
9.2256528662986561e+00,	 0.0000000000000000e+00,	 2.9701279488602425e-03,	 1.9824947157916390e+03,	 1.0319737076036883e-01,	 4.0295927577429586e+02,	 3.4432317419772784e+02,	 3.8521264266194908e+02,	 5.1464944265013379e+00 
9.3409735271273906e+00,	 0.0000000000000000e+00,	 2.9283574924524815e-03,	 1.9836495070888559e+03,	 1.0826490921304965e-01,	 4.0068444479497430e+02,	 3.3756430301828908e+02,	 3.8412378089971958e+02,	 5.1640893083919455e+00 
9.4562941879561233e+00,	 0.0000000000000000e+00,	 2.8878699651129786e-03,	 1.9847776104757017e+03,	 1.1629605843499280e-01,	 3.9846095567466102e+02,	 3.3104981052888019e+02,	 3.8305650308324846e+02,	 5.1814225784113157e+00 
9.5716148487848560e+00,	 0.0000000000000000e+00,	 2.8486403246583123e-03,	 1.9858790921376681e+03,	 1.2612362520542986e-01,	 3.9628876277040825e+02,	 3.2477254817832437e+02,	 3.8201096811964715e+02,	 5.1984871165289519e+00 
9.6869355096135905e+00,	 0.0000000000000000e+00,	 2.8106387701258141e-03,	 1.9869541839421308e+03,	 1.3662919329379841e-01,	 3.9416751002596624e+02,	 3.1872475358297288e+02,	 3.8098718293910065e+02,	 5.2152783023077802e+00 
9.8022561704423232e+00,	 0.0000000000000000e+00,	 2.7738302382496185e-03,	 1.9880032840100453e+03,	 1.4681666529840642e-01,	 3.9209649200358740e+02,	 3.1289798937633799e+02,	 3.7998498151782934e+02,	 5.2317943764260795e+00 
9.9175768312710559e+00,	 0.0000000000000000e+00,	 2.7381781765605951e-03,	 1.9890268565178253e+03,	 1.5608583032593515e-01,	 3.9007486064446573e+02,	 3.0728375712921138e+02,	 3.7900412308285371e+02,	 5.2480348932966727e+00 
1.0032897492099789e+01,	 0.0000000000000000e+00,	 2.7036429338391822e-03,	 1.9900254915112291e+03,	 1.6395423332588677e-01,	 3.8810151482671949e+02,	 3.0187323562584822e+02,	 3.7804423746764331e+02,	 5.2640016723849312e+00 
1.0148218152928523e+01,	 0.0000000000000000e+00,	 2.6701813286057656e-03,	 1.9909999182653985e+03,	 1.7016362948418973e-01,	 3.8617509125569978e+02,	 2.9665723876240378e+02,	 3.7710481918852491e+02,	 5.2796989702263168e+00 
1.0263538813757256e+01,	 0.0000000000000000e+00,	 2.6377490670915858e-03,	 1.9919509145194879e+03,	 1.7457876701062558e-01,	 3.8429409863382978e+02,	 2.9162659755044439e+02,	 3.7618529166519346e+02,	 5.2951323890210942e+00 
1.0378859474585989e+01,	 0.0000000000000000e+00,	 2.6063043919439216e-03,	 1.9928792233883134e+03,	 1.7735055057828686e-01,	 3.8245712010254181e+02,	 2.8677271223800176e+02,	 3.7528510596318125e+02,	 5.3103072826855886e+00 
1.0494180135414723e+01,	 0.0000000000000000e+00,	 2.5758076705802526e-03,	 1.9937855617388720e+03,	 1.7879444535786959e-01,	 3.8066279869274808e+02,	 2.8208747661799316e+02,	 3.7440373426600519e+02,	 5.3252288566628101e+00 
1.0609500796243456e+01,	 0.0000000000000000e+00,	 2.5462238558555733e-03,	 1.9946705317607502e+03,	 1.7939620327940564e-01,	 3.7890999456797613e+02,	 2.7756364440056768e+02,	 3.7354074790683597e+02,	 5.3399008033401572e+00 
1.0724821457072188e+01,	 0.0000000000000000e+00,	 2.5175249800254815e-03,	 1.9955345476300010e+03,	 1.7991595632125135e-01,	 3.7719794544487911e+02,	 2.7319518736615004e+02,	 3.7269589800828447e+02,	 5.3543239043006317e+00 
1.0840142117900921e+01,	 0.0000000000000000e+00,	 2.4896886336386618e-03,	 1.9963778751686350e+03,	 1.8103784557157776e-01,	 3.7552617794789705e+02,	 2.6897702831591386e+02,	 3.7186907380035308e+02,	 5.3684966673216294e+00 
1.0955462778729656e+01,	 0.0000000000000000e+00,	 2.4626963169719455e-03,	 1.9972006864834570e+03,	 1.8329225729672127e-01,	 3.7389441725176846e+02,	 2.6490477029158484e+02,	 3.7106025941058709e+02,	 5.3824160476433329e+00 
1.1070783439558388e+01,	 0.0000000000000000e+00,	 2.4365310614657644e-03,	 1.9980031158684310e+03,	 1.8686109399928474e-01,	 3.7230245131399602e+02,	 2.6097432646986312e+02,	 3.7026946741828885e+02,	 5.3960785331222114e+00 
1.1186104100387121e+01,	 0.0000000000000000e+00,	 2.4111770562883061e-03,	 1.9987852775371739e+03,	 1.9173541371810932e-01,	 3.7075011046699842e+02,	 2.5718185768309337e+02,	 3.6949672899035073e+02,	 5.4094803279992609e+00 
1.1301424761215856e+01,	 0.0000000000000000e+00,	 2.3866173106179534e-03,	 1.9995473332249305e+03,	 1.9756858118537157e-01,	 3.6923711759354109e+02,	 2.5352341476510853e+02,	 3.6874201925348314e+02,	 5.4226186292344769e+00 
1.1416745422044588e+01,	 0.0000000000000000e+00,	 2.3628331572606975e-03,	 2.0002895213026877e+03,	 2.0389025539724526e-01,	 3.6776305255975689e+02,	 2.4999486584166485e+02,	 3.6800523892282246e+02,	 5.4354919988339905e+00 
1.1532066082873321e+01,	 0.0000000000000000e+00,	 2.3398818151807764e-03,	 2.0010110572024932e+03,	 1.8584314201074381e-01,	 3.6632758905462134e+02,	 2.4660023573141655e+02,	 3.6728633231559917e+02,	 5.4480956403058700e+00 
0.0000000000000000e+00,	 2.0000000000000000e-02,	 4.4579912404618227e-02,	 1.5327488910172087e+03,	 2.0331930716096149e+00,	 1.1885789917345405e+03,	 1.5243938853219044e+04,	 6.6158245368257167e+02,	 2.3167939702772746e+00 
1.1532066082873320e-01,	 2.0306773282521999e-02,	 4.3392636536917148e-02,	 1.5410769467361961e+03,	 3.0843507928381007e+00,	 1.1758580220348483e+03,	 1.4679148450451727e+04,	 6.5803258023652859e+02,	 2.3419509604348541e+00 
2.3064132165746640e-01,	 2.0742201524412002e-02,	 4.2107591509538675e-02,	 1.5501909616038636e+03,	 3.3469223883455612e+00,	 1.1618641702424088e+03,	 1.4074912306953298e+04,	 6.5410524728706844e+02,	 2.3699467036791955e+00 
3.4596198248619958e-01,	 2.1196435893209700e-02,	 4.0890731965507611e-02,	 1.5589850913899636e+03,	 3.3652363980245124e+00,	 1.1482835101320472e+03,	 1.3508401190072846e+04,	 6.5027119668887769e+02,	 2.3974439148399518e+00 
4.6128264331493279e-01,	 2.1667313641546400e-02,	 3.9738031128563264e-02,	 1.5673963587103494e+03,	 3.3795016824135633e+00,	 1.1352240726615498e+03,	 1.2978301974633672e+04,	 6.4656285304381129e+02,	 2.4242036093482264e+00 
5.7660330414366601e-01,	 2.2152425706400899e-02,	 3.8645113546192190e-02,	 1.5754667096196042e+03,	 3.4170263405010899e+00,	 1.1226278661622343e+03,	 1.2481314982620512e+04,	 6.4296578471599241e+02,	 2.4503176571077985e+00 
6.9192396497239927e-01,	 2.2650174391558399e-02,	 3.7601063737878582e-02,	 1.5832655013735371e+03,	 3.4688832816977184e+00,	 1.1103940672319211e+03,	 1.2011775358157140e+04,	 6.3945283907942735e+02,	 2.4759750910693961e+00 
8.0724462580113254e-01,	 2.3159051265588600e-02,	 3.6604566516072155e-02,	 1.5907947361378949e+03,	 3.5053536521854967e+00,	 1.0985256533849977e+03,	 1.1568456260551171e+04,	 6.3602627199864889e+02,	 2.5011523395078163e+00 
9.2256528662986570e-01,	 2.3677649643655499e-02,	 3.5653028959174965e-02,	 1.5980649600605964e+03,	 3.5468834035338750e+00,	 1.0870120004348571e+03,	 1.1149636481642865e+04,	 6.3268439508310257e+02,	 2.5258547683565609e+00 
1.0378859474585989e+00,	 2.4204799548778799e-02,	 3.4742967516175303e-02,	 1.6050965724927305e+03,	 3.5915848745074261e+00,	 1.0758269141657490e+03,	 1.0753237865424064e+04,	 6.2942089477357786e+02,	 2.5501228257659223e+00 
1.1532066082873320e+00,	 2.4739468650938401e-02,	 3.3870699472259860e-02,	 1.6119106416042009e+03,	 3.6422430304782445e+00,	 1.0649413887877131e+03,	 1.0377190970372321e+04,	 6.2622846817124321e+02,	 2.5740042787868940e+00 
1.2685272691160654e+00,	 2.5280646956267000e-02,	 3.3032882563603108e-02,	 1.6185281965961169e+03,	 3.6970760490700250e+00,	 1.0543243135916071e+03,	 1.0019605735381951e+04,	 6.2309901464354778e+02,	 2.5975525253973224e+00 
1.3838479299447985e+00,	 2.5827608207789201e-02,	 3.2226846123792757e-02,	 1.6249617474415820e+03,	 3.7539197571979650e+00,	 1.0439598231304733e+03,	 9.6790231372527651e+03,	 6.2002877632415039e+02,	 2.6207913980136559e+00 
1.4991685907735317e+00,	 2.6379485316457701e-02,	 3.1452628951400378e-02,	 1.6311990848888499e+03,	 3.7778335650405950e+00,	 1.0338728198641668e+03,	 9.3552200458696152e+03,	 6.1702606823341546e+02,	 2.6436540424576540e+00 
1.6144892516022651e+00,	 2.6935325381706801e-02,	 3.0730433502184098e-02,	 1.6370699094937861e+03,	 3.6150239435273517e+00,	 1.0243441410790324e+03,	 9.0561688649158368e+03,	 6.1417607893084232e+02,	 2.6654797492889184e+00 
1.7298099124309982e+00,	 2.7494641552905000e-02,	 3.0104229429132462e-02,	 1.6422194767644050e+03,	 3.1546106101042488e+00,	 1.0159590146979290e+03,	 8.7990065468682133e+03,	 6.1165713712257866e+02,	 2.6848742653462478e+00 
1.8451305732597314e+00,	 2.8056894016936600e-02,	 2.9585654325760807e-02,	 1.6465223840643716e+03,	 2.7456124082733790e+00,	 1.0089355198529506e+03,	 8.5876537968289613e+03,	 6.0953922628461362e+02,	 2.7012612187137615e+00 
1.9604512340884646e+00,	 2.8621175640030999e-02,	 2.9078895175673886e-02,	 1.6506945774315395e+03,	 2.9315418021903454e+00,	 1.0021104741973373e+03,	 8.3834627856553907e+03,	 6.0747408323399782e+02,	 2.7173129292517904e+00 
2.0757718949171977e+00,	 2.9187522042543799e-02,	 2.8475782648298698e-02,	 1.6558591829512070e+03,	 3.9506744412047370e+00,	 9.9363838106520643e+02,	 8.1401791949897834e+03,	 6.0490076373491991e+02,	 2.7374141266244307e+00 
2.1910925557459309e+00,	 2.9754749437236199e-02,	 2.7555955856640800e-02,	 1.6637046925522102e+03,	 6.8759265723030474e+00,	 9.8070646558494093e+02,	 7.7747146136492029e+03,	 6.0095156820243506e+02,	 2.7684741820867638e+00 
2.3064132165746640e+00,	 3.0322923464531800e-02,	 2.6155433510783758e-02,	 1.6755608713953127e+03,	 1.2005568177632458e+01,	 9.6101784942739118e+02,	 7.2314154729956181e+03,	 5.9488864670405712e+02,	 2.8166681120914832e+00 
2.4217338774033976e+00,	 3.0891159900609300e-02,	 2.4420579329832267e-02,	 1.6910218026187306e+03,	 1.6493558233876595e+01,	 9.3512480791778705e+02,	 6.5698503702124017e+03,	 5.8681977810822957e+02,	 2.8818085204647184e+00 
2.5370545382321308e+00,	 3.1459519379374003e-02,	 2.2538099182222320e-02,	 1.7086202194705625e+03,	 1.8165401182883944e+01,	 9.0539653359080125e+02,	 5.8706481279043001e+03,	 5.7741673577975553e+02,	 2.9592436011701726e+00 
2.6523751990608639e+00,	 3.2027636624530703e-02,	 2.0670382496127036e-02,	 1.7266513597753565e+03,	 1.8874589517550728e+01,	 8.7464242640649991e+02,	 5.2012651105349323e+03,	 5.6752529552964859e+02,	 3.0426036203921951e+00 
2.7676958598895971e+00,	 3.2594783488355199e-02,	 1.8933600333911945e-02,	 1.7441364407210528e+03,	 1.9754414859488410e+01,	 8.4450434187025814e+02,	 4.6000762408591481e+03,	 5.5766180093834339e+02,	 3.1277887517011811e+00 
2.8830165207183303e+00,	 3.3160643630117802e-02,	 1.7341884109227112e-02,	 1.7608505914560315e+03,	 2.0235228354987157e+01,	 8.1536778135331565e+02,	 4.0679889422424044e+03,	 5.4795731237641064e+02,	 3.2136935063818672e+00 
2.9983371815470634e+00,	 3.3724656675737902e-02,	 1.5906585408123609e-02,	 1.7765706269066516e+03,	 2.0120857338739498e+01,	 7.8766674761924844e+02,	 3.6045363598260051e+03,	 5.3856882328857091e+02,	 3.2988997646133624e+00 
3.1136578423757966e+00,	 3.4287033982941299e-02,	 1.4628672495264686e-02,	 1.7911772976021562e+03,	 1.9951950592901614e+01,	 7.6171096779228083e+02,	 3.2057161383775529e+03,	 5.2962083058184282e+02,	 3.3822091452197856e+00 
3.2289785032045302e+00,	 3.4847650993748203e-02,	 1.3492158580445791e-02,	 1.8047366218552465e+03,	 1.9917752297311921e+01,	 7.3746264976824841e+02,	 2.8625389452476143e+03,	 5.2112267235171510e+02,	 3.4633813191574463e+00 
3.3442991640332633e+00,	 3.5405528870696097e-02,	 1.2476948165219874e-02,	 1.8173656127506147e+03,	 1.9789012121695322e+01,	 7.1474180665569679e+02,	 2.5655914162160066e+03,	 5.1303210819474270e+02,	 3.5426113108076449e+00 
3.4596198248619965e+00,	 3.5961016657748798e-02,	 1.1568500345331653e-02,	 1.8291114244658393e+03,	 1.9507031173506029e+01,	 6.9344665078110313e+02,	 2.3079163098365443e+03,	 5.0533162806271497e+02,	 3.6198316883644814e+00 
3.5749404856907296e+00,	 3.6513036995791399e-02,	 1.0756017323386768e-02,	 1.8400185772054799e+03,	 1.9192974294416295e+01,	 6.7353220189586295e+02,	 2.0842019354896925e+03,	 4.9802269688880392e+02,	 3.6948490211035718e+00 