TITLE = "Final State"
VARIABLES = "X", "Y", "rho", "u", "v", "T", "p", "c", "M"
ZONE I=201, J=51, DATAPACKING=POINT
0.0000000000000000e+000,	 0.0000000000000000e+000,	 7.6710278153386406e+000,	 6.4750435087063103e+000,	 -2.2928757722090335e-003,	 1.2559941025049818e+003,	 2.7718587480513812e+006,	 6.8008587306252139e+002,	 9.5209210647371045e-003 
4.8424999999999998e-004,	 0.0000000000000000e+000,	 7.6702789676755456e+000,	 6.8303558842103911e+000,	 -7.2603366903719821e-004,	 1.2559744019592131e+003,	 2.7715446855294928e+006,	 6.8008053939280887e+002,	 1.0043451513692205e-002 
9.6849999999999996e-004,	 0.0000000000000000e+000,	 7.6695881104766324e+000,	 7.1701092709612109e+000,	 -5.2045491916727783e-004,	 1.2559567416766440e+003,	 2.7712560870058523e+006,	 6.8007575806259365e+002,	 1.0543103771668840e-002 
1.4527500000000000e-003,	 0.0000000000000000e+000,	 7.6691083589777298e+000,	 7.5092522846372143e+000,	 -4.5117724510212998e-004,	 1.2559133565193240e+003,	 2.7709870152270980e+006,	 6.8006401185845232e+002,	 1.1041978647966137e-002 
1.9369999999999999e-003,	 0.0000000000000000e+000,	 7.6685931080495457e+000,	 7.8487981722417892e+000,	 -1.1455931666251209e-003,	 1.2558860643704534e+003,	 2.7707406337409699e+006,	 6.8005662261102077e+002,	 1.1541389341539091e-002 
2.4212499999999998e-003,	 0.0000000000000000e+000,	 7.6679960159682627e+000,	 8.1789321468255807e+000,	 -2.3560460420375302e-003,	 1.2558735243812494e+003,	 2.7704972346851588e+006,	 6.8005322742883209e+002,	 1.2026900478207208e-002 
2.9055000000000001e-003,	 0.0000000000000000e+000,	 7.6674290106193013e+000,	 8.4959229757604238e+000,	 -2.4281707807542723e-003,	 1.2558465937114270e+003,	 2.7702329664075971e+006,	 6.8004593593539869e+002,	 1.2493160937819704e-002 
3.3897500000000000e-003,	 0.0000000000000000e+000,	 7.6668705455538380e+000,	 8.8019494611804276e+000,	 -1.3961789853580908e-003,	 1.2558060580596252e+003,	 2.7699417838231758e+006,	 6.8003496073832787e+002,	 1.2943378032147077e-002 
3.8739999999999998e-003,	 0.0000000000000000e+000,	 7.6662255111172755e+000,	 9.1033410458733215e+000,	 -7.6439968330305880e-004,	 1.2557726233692897e+003,	 2.7696350002042493e+006,	 6.8002590802293355e+002,	 1.3386756255262125e-002 
4.3582500000000001e-003,	 0.0000000000000000e+000,	 7.6655361293724997e+000,	 9.4049792483449899e+000,	 -4.6360397764670289e-004,	 1.2557506506047607e+003,	 2.7693374849991752e+006,	 6.8001995865191100e+002,	 1.3830445915758098e-002 
4.8424999999999996e-003,	 0.0000000000000000e+000,	 7.6648993275542168e+000,	 9.7055819770244494e+000,	 -2.1504537647101682e-004,	 1.2557246004070798e+003,	 2.7690499824753320e+006,	 6.8001290520295845e+002,	 1.4272643805943744e-002 
5.3267499999999999e-003,	 0.0000000000000000e+000,	 7.6643124945599688e+000,	 9.9992619921843975e+000,	 -1.1974319185451937e-004,	 1.2556860249331994e+003,	 2.7687529231575588e+006,	 6.8000246022899046e+002,	 1.4704743846859211e-002 
5.8110000000000002e-003,	 0.0000000000000000e+000,	 7.6636886555556147e+000,	 1.0281629820247312e+001,	 -1.9565004173799838e-004,	 1.2556451411984713e+003,	 2.7684374195208354e+006,	 6.7999139007851386e+002,	 1.5120235303158302e-002 
6.2952499999999996e-003,	 0.0000000000000000e+000,	 7.6629649225506249e+000,	 1.0553110613313615e+001,	 -7.6034143266459609e-004,	 1.2556125776747308e+003,	 2.7681041885495805e+006,	 6.7998257267516817e+002,	 1.5519678098788327e-002 
6.7794999999999999e-003,	 0.0000000000000000e+000,	 7.6621729746783709e+000,	 1.0821145554285380e+001,	 -1.4172247578765600e-003,	 1.2555861931392221e+003,	 2.7677599511146527e+006,	 6.7997542830639395e+002,	 1.5914024531802681e-002 
7.2637500000000002e-003,	 0.0000000000000000e+000,	 7.6613964127537022e+000,	 1.1093516480068612e+001,	 -2.0561122808971347e-003,	 1.2555544754035236e+003,	 2.7674095282730749e+006,	 6.7996683972153994e+002,	 1.6314790696492276e-002 
7.7479999999999997e-003,	 0.0000000000000000e+000,	 7.6606825925123907e+000,	 1.1371651926149099e+001,	 -2.6331927418032281e-003,	 1.2555121766939706e+003,	 2.7670584625490820e+006,	 6.7995538583297241e+002,	 1.6724115240423165e-002 
8.2322500000000000e-003,	 0.0000000000000000e+000,	 7.6600202195603497e+000,	 1.1652121409844256e+001,	 -3.0436802192319095e-003,	 1.2554663405281481e+003,	 2.7667182008417798e+006,	 6.7994297383376704e+002,	 1.7136910381864885e-002 
8.7165000000000003e-003,	 0.0000000000000000e+000,	 7.6593424826884320e+000,	 1.1934335975986249e+001,	 -3.1366461929424657e-003,	 1.2554268680103266e+003,	 2.7663864300896758e+006,	 6.7993228486854048e+002,	 1.7552242559696569e-002 
9.2007500000000006e-003,	 0.0000000000000000e+000,	 7.6585973254866122e+000,	 1.2221692791972625e+001,	 -2.6408341173352681e-003,	 1.2553975954523316e+003,	 2.7660527986103320e+006,	 6.7992435789415003e+002,	 1.7975077573537734e-002 
9.6849999999999992e-003,	 0.0000000000000000e+000,	 7.6578140391326199e+000,	 1.2515755836439848e+001,	 -1.6607781811851050e-003,	 1.2553733224571042e+003,	 2.7657164234613464e+006,	 6.7991778472540670e+002,	 1.8407749036426471e-002 
1.0169249999999999e-002,	 0.0000000000000000e+000,	 7.6570594325728738e+000,	 1.2817538834521825e+001,	 -9.7984899677619995e-004,	 1.2553425342045844e+003,	 2.7653760647554328e+006,	 6.7990944712239047e+002,	 1.8851832293583778e-002 
1.0653500000000000e-002,	 0.0000000000000000e+000,	 7.6563542187021074e+000,	 1.3125400057177741e+001,	 -8.5168040578009058e-004,	 1.2553012895218603e+003,	 2.7650305251383358e+006,	 6.7989827770886188e+002,	 1.9304946806219220e-002 
1.1137750000000000e-002,	 0.0000000000000000e+000,	 7.6556705787614234e+000,	 1.3435627422609139e+001,	 -7.3894523080586657e-004,	 1.2552545161758749e+003,	 2.7646806164478888e+006,	 6.7988561086390530e+002,	 1.9761599934226565e-002 
1.1622000000000000e-002,	 0.0000000000000000e+000,	 7.6549504645128605e+000,	 1.3745378953876566e+001,	 -1.1324978696859401e-003,	 1.2552085497321111e+003,	 2.7643193317595897e+006,	 6.7987316230888905e+002,	 2.0217563749465220e-002 
1.2106250000000001e-002,	 0.0000000000000000e+000,	 7.6542109004711971e+000,	 1.4051474937938327e+001,	 -2.1844687957366165e-003,	 1.2551721276943767e+003,	 2.7639720601710621e+006,	 6.7986329839200812e+002,	 2.0668088924601851e-002 
1.2590499999999999e-002,	 0.0000000000000000e+000,	 7.6535203740814559e+000,	 1.4355165213960362e+001,	 -2.6459209210631151e-003,	 1.2551492669251120e+003,	 2.7636723714137687e+006,	 6.7985710710221520e+002,	 2.1114974467197897e-002 
1.3074750000000000e-002,	 0.0000000000000000e+000,	 7.6528853697771106e+000,	 1.4665027051479615e+001,	 -2.0684778179594111e-003,	 1.2551325303263766e+003,	 2.7634062237922298e+006,	 6.7985257436103836e+002,	 2.1570893088314440e-002 
1.3559000000000000e-002,	 0.0000000000000000e+000,	 7.6522832136977863e+000,	 1.4987465707692701e+001,	 -1.2471537108401944e-003,	 1.2551113209430200e+003,	 2.7631420965170390e+006,	 6.7984683022070169e+002,	 2.2045356532319236e-002 
1.4043250000000000e-002,	 0.0000000000000000e+000,	 7.6517143504339558e+000,	 1.5322963308653510e+001,	 -1.0218663847953984e-003,	 1.2550800715485047e+003,	 2.7628678964415998e+006,	 6.7983836685426900e+002,	 2.2539127077556596e-002 
1.4527500000000000e-002,	 0.0000000000000000e+000,	 7.6511602479869039e+000,	 1.5667816670338894e+001,	 -1.0018240207492659e-003,	 1.2550424596465432e+003,	 2.7625850311940759e+006,	 6.7982818017130148e+002,	 2.3046730275905938e-002 
1.5011750000000001e-002,	 0.0000000000000000e+000,	 7.6505791114243094e+000,	 1.6019359613618683e+001,	 -1.1608711869667591e-003,	 1.2550017540479475e+003,	 2.7622856077988492e+006,	 6.7981715542979191e+002,	 2.3564218007345317e-002 
1.5495999999999999e-002,	 0.0000000000000000e+000,	 7.6499248181026740e+000,	 1.6380290801511180e+001,	 -1.8012669812590603e-003,	 1.2549620769715020e+003,	 2.7619620488082026e+006,	 6.7980640908208704e+002,	 2.4095522904333002e-002 
1.5980250000000001e-002,	 0.0000000000000000e+000,	 7.6492594812499455e+000,	 1.6748472781662464e+001,	 -2.4722117348129668e-003,	 1.2549308340805433e+003,	 2.7616530782965119e+006,	 6.7979794697391139e+002,	 2.4637427986767029e-002 
1.6464500000000000e-002,	 0.0000000000000000e+000,	 7.6486913894887181e+000,	 1.7120016750414003e+001,	 -1.9633647954940734e-003,	 1.2549131097227109e+003,	 2.7614089750248478e+006,	 6.7979314630112401e+002,	 2.5184156321888175e-002 
1.6948749999999999e-002,	 0.0000000000000000e+000,	 7.6481690715656541e+000,	 1.7501678612189622e+001,	 -8.5993626107032449e-004,	 1.2549019867902662e+003,	 2.7611959283545339e+006,	 6.7979013361843749e+002,	 2.5745708517651848e-002 
1.7433000000000001e-002,	 0.0000000000000000e+000,	 7.6475976814519271e+000,	 1.7897488863696815e+001,	 -6.3869339823446956e-004,	 1.2548861864947589e+003,	 2.7609548778319447e+006,	 6.7978585403369038e+002,	 2.6328127849224236e-002 
1.7917249999999999e-002,	 0.0000000000000000e+000,	 7.6469810069042854e+000,	 1.8307798917138896e+001,	 -1.2252692429693232e-003,	 1.2548571714811060e+003,	 2.7606684118130207e+006,	 6.7977799510988427e+002,	 2.6932026470172402e-002 
1.8401500000000001e-002,	 0.0000000000000000e+000,	 7.6463793275356311e+000,	 1.8728697809482952e+001,	 -1.8359106432307489e-003,	 1.2548209591225238e+003,	 2.7603715366227510e+006,	 6.7976818660630693e+002,	 2.7551595188601945e-002 
1.8885750000000000e-002,	 0.0000000000000000e+000,	 7.6458616575803013e+000,	 1.9157776951859979e+001,	 -1.9068950026206969e-003,	 1.2547848137337387e+003,	 2.7601051481174142e+006,	 6.7975839610107505e+002,	 2.8183215031468378e-002 
1.9369999999999998e-002,	 0.0000000000000000e+000,	 7.6453901151356032e+000,	 1.9606057305479819e+001,	 -1.7397856169226956e-003,	 1.2547500320779081e+003,	 2.7598584211923485e+006,	 6.7974897484965140e+002,	 2.8843084885870028e-002 
1.9854250000000000e-002,	 0.0000000000000000e+000,	 7.6448994186926065e+000,	 2.0076794571809536e+001,	 -1.8860336450734626e-003,	 1.2547186788795220e+003,	 2.7596123301274665e+006,	 6.7974048214709956e+002,	 2.9535970252912973e-002 
2.0338499999999999e-002,	 0.0000000000000000e+000,	 7.6443278337342750e+000,	 2.0575294310771341e+001,	 -2.2439176666658065e-003,	 1.2546877558285355e+003,	 2.7593379959580670e+006,	 6.7973210585548452e+002,	 3.0269711046288734e-002 
2.0822750000000001e-002,	 0.0000000000000000e+000,	 7.6437637957412390e+000,	 2.1092025914770712e+001,	 -3.2511646661895592e-003,	 1.2546603224055145e+003,	 2.7590740699883993e+006,	 6.7972467473158724e+002,	 3.1030249378058778e-002 
2.1307000000000000e-002,	 0.0000000000000000e+000,	 7.6433609309164261e+000,	 2.1605837430770134e+001,	 -3.1737672611513649e-003,	 1.2546501732959455e+003,	 2.7589063355672839e+006,	 6.7972192553563821e+002,	 3.1786289145885382e-002 
2.1791250000000002e-002,	 0.0000000000000000e+000,	 7.6429816240647268e+000,	 2.2136476908377272e+001,	 -1.6009171833770305e-003,	 1.2546504631547655e+003,	 2.7587700603638473e+006,	 6.7972200405289664e+002,	 3.2566956541462813e-002 
2.2275500000000000e-002,	 0.0000000000000000e+000,	 7.6425073324371073e+000,	 2.2696434528564353e+001,	 -7.4607765450356934e-004,	 1.2546431832388525e+003,	 2.7585828562319078e+006,	 6.7972003205896010e+002,	 3.3390857221136251e-002 
2.2759749999999999e-002,	 0.0000000000000000e+000,	 7.6420313219756757e+000,	 2.3285780432776747e+001,	 -1.3935626180802375e-003,	 1.2546194391093090e+003,	 2.7583588360755006e+006,	 6.7971360017574818e+002,	 3.4258223564241699e-002 
2.3244000000000001e-002,	 0.0000000000000000e+000,	 7.6415894746306599e+000,	 2.3905301662477591e+001,	 -2.1180751866692925e-003,	 1.2545873028626586e+003,	 2.7581287036967543e+006,	 6.7970489491297917e+002,	 3.5170118584141950e-002 
2.3728249999999999e-002,	 0.0000000000000000e+000,	 7.6411599129657439e+000,	 2.4560547888298672e+001,	 -1.4590466631188175e-003,	 1.2545548162329587e+003,	 2.7579022434740528e+006,	 6.7969609462298627e+002,	 3.6134602105165919e-002 
2.4212500000000001e-002,	 0.0000000000000000e+000,	 7.6407128074079376e+000,	 2.5261692582504281e+001,	 -7.7100482495330754e-004,	 1.2545171421813302e+003,	 2.7576580564753143e+006,	 6.7968588897167683e+002,	 3.7166716279029254e-002 
2.4696750000000000e-002,	 0.0000000000000000e+000,	 7.6402125579302869e+000,	 2.6012452462553583e+001,	 -1.1150869782965175e-003,	 1.2544700606588647e+003,	 2.7573740212487574e+006,	 6.7967313468334407e+002,	 3.8272003348452335e-002 
2.5180999999999999e-002,	 0.0000000000000000e+000,	 7.6396375423403331e+000,	 2.6810815526912180e+001,	 -1.7981332700051011e-003,	 1.2544247927326824e+003,	 2.7570670033434569e+006,	 6.7966087146885161e+002,	 3.9447343098136578e-002 
2.5665250000000001e-002,	 0.0000000000000000e+000,	 7.6390968999342768e+000,	 2.7654768332566455e+001,	 -1.6575224503789835e-003,	 1.2543866235097239e+003,	 2.7567880058455113e+006,	 6.7965053114202124e+002,	 4.0689688472354740e-002 
2.6149499999999999e-002,	 0.0000000000000000e+000,	 7.6384584153591799e+000,	 2.8556069280436397e+001,	 -1.2282853873268329e-003,	 1.2543466701573780e+003,	 2.7564697914470718e+006,	 6.7963970731272502e+002,	 4.2016481673447868e-002 
2.6633750000000001e-002,	 0.0000000000000000e+000,	 7.6376432570820167e+000,	 2.9524403476831694e+001,	 -9.4338052796455983e-004,	 1.2543013363458315e+003,	 2.7560760155154401e+006,	 6.7962742564548989e+002,	 4.3442042474760356e-002 
2.7118000000000000e-002,	 0.0000000000000000e+000,	 7.6366362705770641e+000,	 3.0574398728909827e+001,	 -3.3914342512694432e-003,	 1.2542479834569674e+003,	 2.7555954233242869e+006,	 6.7961297119540836e+002,	 4.4987956694273440e-002 
2.7602249999999998e-002,	 0.0000000000000000e+000,	 7.6358252121004515e+000,	 3.1670738836088994e+001,	 -5.7826676932309180e-003,	 1.2542076426243848e+003,	 2.7552141420750427e+006,	 6.7960204178834283e+002,	 4.6601889659820671e-002 
2.8086500000000000e-002,	 0.0000000000000000e+000,	 7.6352507529787292e+000,	 3.2822262754460553e+001,	 -4.9379160946418270e-003,	 1.2541832404591541e+003,	 2.7549532594697233e+006,	 6.7959543050588195e+002,	 4.8296768419217130e-002 
2.8570749999999999e-002,	 0.0000000000000000e+000,	 7.6343624489730715e+000,	 3.4077885725905972e+001,	 -4.8073032152029871e-003,	 1.2541428675373086e+003,	 2.7545440680715856e+006,	 6.7958449212258745e+002,	 5.0145179091045836e-002 
2.9055000000000001e-002,	 0.0000000000000000e+000,	 7.6332445174549086e+000,	 3.5442140331909805e+001,	 -4.5773714892460527e-003,	 1.2540888871324344e+003,	 2.7540221658823765e+006,	 6.7956986673909773e+002,	 5.2153784860360562e-002 
2.9539250000000000e-002,	 0.0000000000000000e+000,	 7.6321223724885616e+000,	 3.6917382990083496e+001,	 -1.7406000100215592e-003,	 1.2540284236066318e+003,	 2.7534845432352498e+006,	 6.7955348445317475e+002,	 5.4325941777524180e-002 
3.0023500000000002e-002,	 0.0000000000000000e+000,	 7.6309358382991475e+000,	 3.8502483010638002e+001,	 1.8967741165054619e-004,	 1.2539645551534015e+003,	 2.7529162556025810e+006,	 6.7953617919048713e+002,	 5.6659945695565712e-002 
3.0507750000000000e-002,	 0.0000000000000000e+000,	 7.6295551236127181e+000,	 4.0215634351901876e+001,	 -8.4169574085016588e-004,	 1.2538933144949156e+003,	 2.7522617813083706e+006,	 6.7951687589667756e+002,	 5.9182686681095671e-002 
3.0991999999999999e-002,	 0.0000000000000000e+000,	 7.6280418080753689e+000,	 4.2083419564989633e+001,	 -2.1625876597058252e-004,	 1.2538120681117625e+003,	 2.7515375743758962e+006,	 6.7949486079293706e+002,	 6.1933389042024563e-002 
3.1476249999999997e-002,	 0.0000000000000000e+000,	 7.6263120444814003e+000,	 4.4124871447763176e+001,	 1.8943652910346958e-003,	 1.2537202823967557e+003,	 2.7507122437996976e+006,	 6.7946998901801737e+002,	 6.4940133047226456e-002 
3.1960500000000003e-002,	 0.0000000000000000e+000,	 7.6244028528834953e+000,	 4.6365202468574722e+001,	 2.8971940739758477e-003,	 1.2536160553345803e+003,	 2.7497950019732192e+006,	 6.7944174482602295e+002,	 6.8240144077347714e-002 
3.2444750000000001e-002,	 0.0000000000000000e+000,	 7.6223210424414365e+000,	 4.8797173995657722e+001,	 3.0788317725321743e-003,	 1.2535012311273199e+003,	 2.7487923852164247e+006,	 6.7941062758484509e+002,	 7.1822800691607583e-002 
3.2929000000000000e-002,	 0.0000000000000000e+000,	 7.6199857753634728e+000,	 5.1455983204442418e+001,	 2.7808362710079991e-003,	 1.2533764290235097e+003,	 2.7476766380697503e+006,	 6.7937680472763429e+002,	 7.5739976580763271e-002 
3.3413249999999999e-002,	 0.0000000000000000e+000,	 7.6173294587074105e+000,	 5.4374981562527317e+001,	 3.4914962690692219e-003,	 1.2532357093879186e+003,	 2.7464104209042280e+006,	 6.7933866600981378e+002,	 8.0041052269265098e-002 
3.3897499999999997e-002,	 0.0000000000000000e+000,	 7.6141472065980746e+000,	 5.7591137753466697e+001,	 4.8860193217400618e-003,	 1.2530714515053751e+003,	 2.7449032538297991e+006,	 6.7929414510024037e+002,	 8.4780854326710897e-002 
3.4381750000000003e-002,	 0.0000000000000000e+000,	 7.6104898794432261e+000,	 6.1153382290682899e+001,	 4.7725180064922320e-003,	 1.2528790709691768e+003,	 2.7431635710032443e+006,	 6.7924199803873546e+002,	 9.0031804060242082e-002 
3.4866000000000001e-002,	 0.0000000000000000e+000,	 7.6064264743976615e+000,	 6.5085223025600357e+001,	 4.0503136424709270e-003,	 1.2526575744104198e+003,	 2.7412142315764725e+006,	 6.7918195377001541e+002,	 9.5828846438500759e-002 
3.5350250000000000e-002,	 0.0000000000000000e+000,	 7.6017786085893873e+000,	 6.9437522430945762e+001,	 3.0541959350859783e-003,	 1.2524037908214787e+003,	 2.7389842073559104e+006,	 6.7911315046402410e+002,	 1.0224735370043951e-001 
3.5834499999999998e-002,	 0.0000000000000000e+000,	 7.5961044782193561e+000,	 7.4240866737667915e+001,	 3.5529265677298888e-003,	 1.2521104079750348e+003,	 2.7362986268758052e+006,	 6.7903360270943494e+002,	 1.0933312655876333e-001 
3.6318749999999997e-002,	 0.0000000000000000e+000,	 7.5892803285311494e+000,	 7.9595962670388943e+001,	 2.6971323011237107e-003,	 1.2517599652501708e+003,	 2.7330752530803517e+006,	 6.7893857153760359e+002,	 1.1723588267466258e-001 
3.6803000000000002e-002,	 0.0000000000000000e+000,	 7.5813424933528655e+000,	 8.5548118058338844e+001,	 2.8481129808123340e-003,	 1.2513375578225200e+003,	 2.7292953413188211e+006,	 6.7882400768277057e+002,	 1.2602400200572725e-001 
3.7287250000000001e-002,	 0.0000000000000000e+000,	 7.5720395548078532e+000,	 9.2192214760050433e+001,	 2.8997751542145234e-003,	 1.2508294393163114e+003,	 2.7248393700998155e+006,	 6.7868617194827777e+002,	 1.3583924148771442e-001 
3.7771500000000000e-002,	 0.0000000000000000e+000,	 7.5606562174922587e+000,	 9.9586524324465927e+001,	 5.6754324937590868e-003,	 1.2502216994256455e+003,	 2.7194210885418691e+006,	 6.7852127545633982e+002,	 1.4676993646103478e-001 
3.8255749999999998e-002,	 0.0000000000000000e+000,	 7.5467846435019705e+000,	 1.0788890460006212e+002,	 6.4814124841047135e-003,	 1.2494866710511817e+003,	 2.7128358885473576e+006,	 6.7832178855117184e+002,	 1.5905268946938467e-001 
3.8739999999999997e-002,	 0.0000000000000000e+000,	 7.5303912193715652e+000,	 1.1717087144853217e+002,	 6.8773912712428650e-003,	 1.2486012278242038e+003,	 2.7050246959115365e+006,	 6.7808140108210500e+002,	 1.7279764857638416e-001 
3.9224250000000002e-002,	 0.0000000000000000e+000,	 7.5101656921178606e+000,	 1.2752079072116588e+002,	 9.2550768581225323e-003,	 1.2475314853402588e+003,	 2.6954480833237041e+006,	 6.7779086480080753e+002,	 1.8814179665064559e-001 
3.9708500000000001e-002,	 0.0000000000000000e+000,	 7.4853651190545687e+000,	 1.3914029500570132e+002,	 8.3339011683003263e-003,	 1.2462206824789594e+003,	 2.6837241925143204e+006,	 6.7743468793651004e+002,	 2.0539292972893056e-001 
4.0192749999999999e-002,	 0.0000000000000000e+000,	 7.4555199834278820e+000,	 1.5214033215699450e+002,	 8.4750082619810055e-003,	 1.2446159931240386e+003,	 2.6695819262936893e+006,	 6.7699839988021608e+002,	 2.2472775773172329e-001 
4.0676999999999998e-002,	 0.0000000000000000e+000,	 7.4193678906941791e+000,	 1.6672329437775150e+002,	 7.3083353388445765e-003,	 1.2426447655593761e+003,	 2.6524294327181755e+006,	 6.7646207111015758e+002,	 2.4646362546878481e-001 
4.1161250000000003e-002,	 0.0000000000000000e+000,	 7.3745641142758327e+000,	 1.8303514005106118e+002,	 9.8142592464820835e-003,	 1.2402286751128397e+003,	 2.6312860395879676e+006,	 6.7580412412111593e+002,	 2.7084051988024876e-001 
4.1645500000000002e-002,	 0.0000000000000000e+000,	 7.3191867529447769e+000,	 2.0139039167440617e+002,	 7.3714181326202943e-003,	 1.2372429899078822e+003,	 2.6052401816301076e+006,	 6.7499017979040582e+002,	 2.9836047669885724e-001 
4.2129750000000001e-002,	 0.0000000000000000e+000,	 7.2517816156429422e+000,	 2.2193891027433000e+002,	 4.6036743083712073e-003,	 1.2335633661225543e+003,	 2.5735707852722807e+006,	 6.7398570477544729e+002,	 3.2929320124975148e-001 
4.2613999999999999e-002,	 0.0000000000000000e+000,	 7.1701371840215975e+000,	 2.4492641631399238e+002,	 -1.3527601982341588e-003,	 1.2290200834517250e+003,	 2.5352242609377201e+006,	 6.7274339637871810e+002,	 3.6407108213344364e-001 
4.3098249999999998e-002,	 0.0000000000000000e+000,	 7.0698262139665058e+000,	 2.7044346185521414e+002,	 -1.7612711836094332e-003,	 1.2234494689315134e+003,	 2.4884258982947371e+006,	 6.7121703794554560e+002,	 4.0291507302722818e-001 
4.3582500000000003e-002,	 0.0000000000000000e+000,	 6.9467946761909829e+000,	 2.9879645682619355e+002,	 -6.0865982641162223e-003,	 1.2166075595003149e+003,	 2.4314475796762593e+006,	 6.6933757955541637e+002,	 4.4640621715375917e-001 
4.4066750000000002e-002,	 0.0000000000000000e+000,	 6.7972192576493642e+000,	 3.2997730444181224e+002,	 -4.1015865494922477e-003,	 1.2082906925166481e+003,	 2.3628309273944949e+006,	 6.6704582243311620e+002,	 4.9468461291561389e-001 
4.4551000000000000e-002,	 0.0000000000000000e+000,	 6.6187702191354791e+000,	 3.6418604378032927e+002,	 -1.6984990086405319e-003,	 1.1981999628857448e+003,	 2.2815844244749416e+006,	 6.6425465177917556e+002,	 5.4826269234070757e-001 
4.5035249999999999e-002,	 0.0000000000000000e+000,	 6.4113365891248399e+000,	 4.0130170067671429e+002,	 1.0102197650464009e-003,	 1.1861111208362570e+003,	 2.1877812341522840e+006,	 6.6089526819521291e+002,	 6.0720922056813809e-001 
4.5519499999999997e-002,	 0.0000000000000000e+000,	 6.1745552422713761e+000,	 4.4109428604980917e+002,	 3.8405987416747014e-003,	 1.1718304003349663e+003,	 2.0816148552341345e+006,	 6.5690464657313396e+002,	 6.7147384078888783e-001 
4.6003750000000003e-002,	 0.0000000000000000e+000,	 5.9075481855023408e+000,	 4.8333311413142803e+002,	 -2.8566275678243574e-002,	 1.1551575537152949e+003,	 1.9632627768810506e+006,	 6.5221467262731414e+002,	 7.4106446122806535e-001 
4.6488000000000002e-002,	 0.0000000000000000e+000,	 5.6145287089640235e+000,	 5.2725141213563404e+002,	 -1.0054333096855578e-001,	 1.1361075606483457e+003,	 1.8351125038299216e+006,	 6.4681439784026793e+002,	 8.1515102861441147e-001 
4.6972250000000000e-002,	 0.0000000000000000e+000,	 5.2971324768971577e+000,	 5.7236006557715837e+002,	 -1.2383022319573135e-001,	 1.1147166946010898e+003,	 1.6987727164878671e+006,	 6.4069628568871781e+002,	 8.9334071658811987e-001 
4.7456499999999999e-002,	 0.0000000000000000e+000,	 4.9145567279825997e+000,	 6.2511158074981631e+002,	 -1.7812338753341589e-001,	 1.0873722921501749e+003,	 1.5374200913939904e+006,	 6.3278923847964711e+002,	 9.8786699917581489e-001 
4.7940749999999997e-002,	 0.0000000000000000e+000,	 4.6220819111937237e+000,	 6.6398729243503180e+002,	 -1.4502071550710610e-001,	 1.0659315941999093e+003,	 1.4174146265341192e+006,	 6.2651954087608010e+002,	 1.0598030307936841e+000 
4.8425000000000003e-002,	 0.0000000000000000e+000,	 4.2750219409772328e+000,	 7.0974079455320816e+002,	 -1.7931277599598830e-001,	 1.0386786012715711e+003,	 1.2774663523851272e+006,	 6.1845847578945927e+002,	 1.1475965565812720e+000 
4.8909250000000001e-002,	 0.0000000000000000e+000,	 3.9333282827684064e+000,	 7.5429630896918616e+002,	 -2.0290083463154948e-001,	 1.0102691527879288e+003,	 1.1432131859044868e+006,	 6.0994194435776228e+002,	 1.2366690686487025e+000 
4.9393500000000000e-002,	 0.0000000000000000e+000,	 3.5996809140221497e+000,	 7.9795040525327954e+002,	 -1.6650004621067702e-001,	 9.8062466560479061e+002,	 1.0155393491091438e+006,	 6.0092650522326028e+002,	 1.3278669116579231e+000 
4.9877749999999998e-002,	 0.0000000000000000e+000,	 3.2835737570561925e+000,	 8.3989405059663545e+002,	 1.0756933320130538e-001,	 9.5043102798944938e+002,	 8.9783662928973848e+005,	 5.9160284866827453e+002,	 1.4196923821035359e+000 
5.0361999999999997e-002,	 0.0000000000000000e+000,	 2.9855521353665391e+000,	 8.7995454084927655e+002,	 4.0851356911377501e-001,	 9.1999157198767057e+002,	 7.9020258443600975e+005,	 5.8205212343732137e+002,	 1.5118141490106696e+000 
5.0846250000000003e-002,	 0.0000000000000000e+000,	 2.7080778726887091e+000,	 9.1787110027878248e+002,	 3.2265337942449357e-001,	 8.8971077210879503e+002,	 6.9317028164935578e+005,	 5.7239308432006862e+002,	 1.6035678664413635e+000 
5.1330500000000001e-002,	 0.0000000000000000e+000,	 2.4537828991616148e+000,	 9.5355040784353491e+002,	 3.6313044583586290e-001,	 8.5987272073584381e+002,	 6.0701614767042815e+005,	 5.6271311751633880e+002,	 1.6945588210130811e+000 
5.1814750000000000e-002,	 0.0000000000000000e+000,	 2.2224266799411145e+000,	 9.8701762917615258e+002,	 3.6458604311956239e-001,	 8.3067407494693589e+002,	 5.3111435049332248e+005,	 5.5307659671557997e+002,	 1.7845949410500781e+000 
5.2298999999999998e-002,	 0.0000000000000000e+000,	 2.0133325529408390e+000,	 1.0182994120533663e+003,	 3.7654613597212605e-001,	 8.0229651532847402e+002,	 4.6470822467045183e+005,	 5.4354737975927981e+002,	 1.8734327854249566e+000 
5.2783249999999997e-002,	 0.0000000000000000e+000,	 1.8251562931477192e+000,	 1.0474951763745207e+003,	 3.7317023369720442e-001,	 7.7484451989087086e+002,	 4.0685959599131328e+005,	 5.3416722384102218e+002,	 1.9609874887367362e+000 
5.3267500000000002e-002,	 0.0000000000000000e+000,	 1.6564322918818992e+000,	 1.0746957039990884e+003,	 3.7749651679202378e-001,	 7.4841600126234653e+002,	 3.5665366407926357e+005,	 5.2497846134092708e+002,	 2.0471235477995875e+000 
5.3751750000000001e-002,	 0.0000000000000000e+000,	 1.5054374934858687e+000,	 1.1000220579090542e+003,	 3.7709851571999076e-001,	 7.2305532714432559e+002,	 3.1315849390799453e+005,	 5.1600714905867142e+002,	 2.1317962833506012e+000 
5.4235999999999999e-002,	 0.0000000000000000e+000,	 1.3704534853133568e+000,	 1.1235934972234668e+003,	 3.7422497473813088e-001,	 6.9878287242308306e+002,	 2.7550944302901247e+005,	 5.0727221987015781e+002,	 2.2149715981507931e+000 
5.4720249999999998e-002,	 0.0000000000000000e+000,	 1.2498252593387320e+000,	 1.1455320040236536e+003,	 3.6332998138670364e-001,	 6.7559986902384685e+002,	 2.4292308724207635e+005,	 4.9878654757561014e+002,	 2.2966378448066331e+000 
5.5204499999999997e-002,	 0.0000000000000000e+000,	 1.1420738031164421e+000,	 1.1659477823721829e+003,	 3.5088108260208689e-001,	 6.5350824804777744e+002,	 2.1472132603723079e+005,	 4.9056379195186446e+002,	 2.3767506984775149e+000 
5.5688750000000002e-002,	 0.0000000000000000e+000,	 1.0457590005677511e+000,	 1.1849628801511462e+003,	 3.4653558060357270e-001,	 6.3248276749095180e+002,	 1.9028749365068600e+005,	 4.8260776158326092e+002,	 2.4553333475924233e+000 
5.6173000000000001e-002,	 0.0000000000000000e+000,	 9.5952578214355022e-001,	 1.2026991496636792e+003,	 3.3633991294238852e-001,	 6.1247623144787474e+002,	 1.6907360998209013e+005,	 4.7491356367535639e+002,	 2.5324591434816668e+000 
5.6657249999999999e-002,	 0.0000000000000000e+000,	 8.8229408660771624e-001,	 1.2192393442528466e+003,	 3.1784843756054415e-001,	 5.9346951290967081e+002,	 1.5064049000303439e+005,	 4.6748659314105822e+002,	 2.6080734796934664e+000 
5.7141499999999998e-002,	 0.0000000000000000e+000,	 8.1308685503074241e-001,	 1.2346685870271529e+003,	 3.1035126337426489e-001,	 5.7543961809512791e+002,	 1.3460668736888177e+005,	 4.6033058723859426e+002,	 2.6821346663909198e+000 
5.7625750000000003e-002,	 0.0000000000000000e+000,	 7.5092484074680677e-001,	 1.2490920277046071e+003,	 3.0914847244228727e-001,	 5.5832888157802313e+002,	 1.2061921631873096e+005,	 4.5343495911903653e+002,	 2.7547326046238814e+000 
5.8110000000000002e-002,	 0.0000000000000000e+000,	 6.9494392844892072e-001,	 1.2625851841187582e+003,	 2.9614816732351568e-001,	 5.4207477244160236e+002,	 1.0837744257756849e+005,	 4.4678599543755251e+002,	 2.8259283678175176e+000 
5.8594250000000001e-002,	 0.0000000000000000e+000,	 6.4446360377839917e-001,	 1.2752116297734729e+003,	 2.7984470666400674e-001,	 5.2664289391660134e+002,	 9.7643775050529235e+004,	 4.4038048744665167e+002,	 2.8957042758027751e+000 
5.9078499999999999e-002,	 0.0000000000000000e+000,	 5.9887210082982789e-001,	 1.2870525344480125e+003,	 2.7166848512608138e-001,	 5.1199472397636538e+002,	 8.8212372873531232e+004,	 4.3421287466159225e+002,	 2.9641050236539153e+000 
5.9562749999999998e-002,	 0.0000000000000000e+000,	 5.5756525240522326e-001,	 1.2981792311266599e+003,	 2.6538673850736794e-001,	 4.9806919490475411e+002,	 7.9894212423029909e+004,	 4.2826718071146604e+002,	 3.0312368463456361e+000 
6.0047000000000003e-002,	 0.0000000000000000e+000,	 5.2004393869393062e-001,	 1.3086500403989980e+003,	 2.5808943124110517e-001,	 4.8481610024676706e+002,	 7.2534898926661626e+004,	 4.2253089588330482e+002,	 3.0971701208102234e+000 
6.0531250000000002e-002,	 0.0000000000000000e+000,	 4.8593750415309328e-001,	 1.3185122103198835e+003,	 2.3842888222417385e-001,	 4.7221126274547214e+002,	 6.6015618642807327e+004,	 4.1700198681734588e+002,	 3.1618847716789698e+000 
6.1015500000000000e-002,	 0.0000000000000000e+000,	 4.5492256832439726e-001,	 1.3277929859134169e+003,	 2.1778972817023468e-001,	 4.6023648737073700e+002,	 6.0234937799584790e+004,	 4.1168067102991790e+002,	 3.2252983858896753e+000 