TITLE = "Final State"
VARIABLES = "X", "Y", "rho", "u", "v", "T", "p", "c", "M"
ZONE I=101, J=51, DATAPACKING=POINT
0.0000000000000000e+000,	 0.0000000000000000e+000,	 4.4550038316537741e-002,	 1.5328999787857958e+003,	 -1.3520211690253281e-005,	 1.1883330440814218e+003,	 1.5230571267135831e+004,	 6.6151400090354093e+002,	 2.3172600681044644e+000 
3.0479999999999999e-003,	 0.0000000000000000e+000,	 4.4550003273342881e-002,	 1.5328999769402337e+003,	 -4.6596556597162221e-006,	 1.1883330325203540e+003,	 1.5230559138547180e+004,	 6.6151399768566853e+002,	 2.3172600765866509e+000 
6.0959999999999999e-003,	 0.0000000000000000e+000,	 4.4550023215930518e-002,	 1.5328999956283687e+003,	 -1.3363160008840062e-006,	 1.1883330004777060e+003,	 1.5230565545748741e+004,	 6.6151398876701546e+002,	 2.3172601360789282e+000 
9.1439999999999994e-003,	 0.0000000000000000e+000,	 4.4550039549178758e-002,	 1.5328999921522736e+003,	 -7.6817880291607490e-007,	 1.1883330218977374e+003,	 1.5230571404222908e+004,	 6.6151399472900175e+002,	 2.3172601099395442e+000 
1.2192000000000000e-002,	 0.0000000000000000e+000,	 4.4550077258922301e-002,	 1.5328999481551780e+003,	 1.1388097729528541e-006,	 1.1883330766448532e+003,	 1.5230584997944909e+004,	 6.6151400996714722e+002,	 2.3172599900511655e+000 
1.5240000000000000e-002,	 0.0000000000000000e+000,	 4.4550136976135683e-002,	 1.5328998834355152e+003,	 1.6945558730129601e-005,	 1.1883331629573090e+003,	 1.5230606520051762e+004,	 6.6151403399109256e+002,	 2.3172598080604834e+000 
1.8287999999999999e-002,	 0.0000000000000000e+000,	 4.4550239001836148e-002,	 1.5328996260593719e+003,	 2.2883397690739841e-005,	 1.1883333901042984e+003,	 1.5230644311453247e+004,	 6.6151409721448761e+002,	 2.3172591975199417e+000 
2.1336000000000001e-002,	 0.0000000000000000e+000,	 4.4550404540685276e-002,	 1.5328994548048370e+003,	 1.8130430066399255e-005,	 1.1883336600958055e+003,	 1.5230704365606733e+004,	 6.6151417236308623e+002,	 2.3172586753945952e+000 
2.4383999999999999e-002,	 0.0000000000000000e+000,	 4.4550669815703728e-002,	 1.5328982501079674e+003,	 -1.0523045648283494e-004,	 1.1883346464380766e+003,	 1.5230807698595552e+004,	 6.6151444689846198e+002,	 2.3172558925886326e+000 
2.7432000000000002e-002,	 0.0000000000000000e+000,	 4.4551089375622605e-002,	 1.5328976862797545e+003,	 -3.8941492956190955e-005,	 1.1883358544754558e+003,	 1.5230966619571889e+004,	 6.6151478313959490e+002,	 2.3172538624224188e+000 
3.0480000000000000e-002,	 0.0000000000000000e+000,	 4.4551663077133208e-002,	 1.5328932984716787e+003,	 -1.5751022357460975e-004,	 1.1883412356119575e+003,	 1.5231231725799764e+004,	 6.6151628090527402e+002,	 2.3172419828790125e+000 
3.3528000000000002e-002,	 0.0000000000000000e+000,	 4.4553772998402477e-002,	 1.5328817885337858e+003,	 -5.8575310630426466e-003,	 1.1883583874833964e+003,	 1.5232172911111616e+004,	 6.6152105487125436e+002,	 2.3172078609702118e+000 
3.6575999999999997e-002,	 0.0000000000000000e+000,	 4.4550620434042634e-002,	 1.5328931753656752e+003,	 -1.2043541546252957e-002,	 1.1883406701294125e+003,	 1.5230868021361170e+004,	 6.6151612351110839e+002,	 2.3172423481938695e+000 
3.9623999999999999e-002,	 0.0000000000000000e+000,	 4.4530888725090090e-002,	 1.5330349233154848e+003,	 -6.8835161375957474e-003,	 1.1881325543646369e+003,	 1.5221455966323552e+004,	 6.6145819485242737e+002,	 2.3176595819074581e+000 
4.2672000000000002e-002,	 0.0000000000000000e+000,	 4.4483528281782737e-002,	 1.5333241577985382e+003,	 2.7446358224696727e-002,	 1.1877206042277621e+003,	 1.5199995337134153e+004,	 6.6134351429078049e+002,	 2.3184988208261275e+000 
4.5719999999999997e-002,	 0.0000000000000000e+000,	 4.4403622953952740e-002,	 1.5334738594709372e+003,	 -4.0154805603373964e-003,	 1.1872210487449547e+003,	 1.5166310097159694e+004,	 6.6120441906756400e+002,	 2.3192129623675415e+000 
4.8767999999999999e-002,	 0.0000000000000000e+000,	 4.4508348943742927e-002,	 1.5322363940720029e+003,	 -3.9380795531306867e-001,	 1.1882328967283540e+003,	 1.5215036324864241e+004,	 6.6148612560697086e+002,	 2.3163546223639178e+000 
5.1816000000000001e-002,	 0.0000000000000000e+000,	 4.5134040724751981e-002,	 1.5281326139646951e+003,	 -7.5841240414430044e-001,	 1.1945685469231444e+003,	 1.5511193993508070e+004,	 6.6324730097659085e+002,	 2.3040166162978526e+000 
5.4864000000000003e-002,	 0.0000000000000000e+000,	 4.5794946443100129e-002,	 1.5229586899379485e+003,	 -1.3723659189785247e+000,	 1.2031503563159376e+003,	 1.5851391666399250e+004,	 6.6562542982869036e+002,	 2.2880125067664432e+000 
5.7911999999999998e-002,	 0.0000000000000000e+000,	 4.5680115590471929e-002,	 1.5228701531218735e+003,	 -1.2624189884190908e+000,	 1.2036692941995743e+003,	 1.5818464106995141e+004,	 6.6576896177046751e+002,	 2.2873861111337770e+000 
6.0960000000000000e-002,	 0.0000000000000000e+000,	 4.4219409748216532e-002,	 1.5330109753855450e+003,	 7.1689238101417363e-001,	 1.1868583293075474e+003,	 1.5098776644747120e+004,	 6.6110340585849247e+002,	 2.3188674107909684e+000 
6.4007999999999995e-002,	 0.0000000000000000e+000,	 4.1183327795752303e-002,	 1.5538215572856329e+003,	 2.5069090049823854e+000,	 1.1523217711178859e+003,	 1.3652907294166769e+004,	 6.5141362366618614e+002,	 2.3853102286091050e+000 
6.7056000000000004e-002,	 0.0000000000000000e+000,	 3.7562939056423127e-002,	 1.5798694926311409e+003,	 1.6836995757659472e+000,	 1.1108658020522773e+003,	 1.2004694166026200e+004,	 6.3958865578978998e+002,	 2.4701351024694445e+000 
7.0104000000000000e-002,	 0.0000000000000000e+000,	 3.4403599498300186e-002,	 1.6080686080135151e+003,	 2.9006743060573776e+000,	 1.0729439925492693e+003,	 1.0619666374152239e+004,	 6.2857699119137897e+002,	 2.5582724896084477e+000 
7.3151999999999995e-002,	 0.0000000000000000e+000,	 3.1584182569385638e-002,	 1.6359387301521747e+003,	 3.4307680996666265e+000,	 1.0370216658669383e+003,	 9.4229613286719505e+003,	 6.1796498591339036e+002,	 2.6473058584461153e+000 
7.6200000000000004e-002,	 0.0000000000000000e+000,	 2.8507503531776016e-002,	 1.6586572861023369e+003,	 9.3215587398083111e-001,	 9.9500914838823883e+002,	 8.1604892695725630e+003,	 6.0531786337682502e+002,	 2.7401430692668773e+000 
7.9247999999999999e-002,	 0.0000000000000000e+000,	 2.5611389715563739e-002,	 1.6783696117515833e+003,	 2.1684634441362000e-001,	 9.5323719082823379e+002,	 7.0236693812315789e+003,	 5.9247556341193126e+002,	 2.8328081855301748e+000 
8.2295999999999994e-002,	 0.0000000000000000e+000,	 2.3299155056854429e-002,	 1.6972400332459986e+003,	 9.1274000466975014e-001,	 9.1773942070742510e+002,	 6.1516199394188734e+003,	 5.8133925132266472e+002,	 2.9195349786043292e+000 
8.5344000000000003e-002,	 0.0000000000000000e+000,	 2.1412247895821815e-002,	 1.7159141883294274e+003,	 7.4652677720596150e-001,	 8.8748209771959375e+002,	 5.4670343345547981e+003,	 5.7167572890264262e+002,	 3.0015518658023401e+000 
8.8391999999999998e-002,	 0.0000000000000000e+000,	 1.9865489390989609e-002,	 1.7347521825924221e+003,	 8.2945052556638654e-001,	 8.6167571503606871e+002,	 4.9246237944988570e+003,	 5.6330276132944527e+002,	 3.0796092261185581e+000 
9.1439999999999994e-002,	 0.0000000000000000e+000,	 1.8407985835301205e-002,	 1.7515603475588728e+003,	 6.3048154394509404e-001,	 8.3587087130841178e+002,	 4.4266521898680803e+003,	 5.5480395595486686e+002,	 3.1570799779473906e+000 
9.4488000000000003e-002,	 0.0000000000000000e+000,	 1.7034535688891139e-002,	 1.7664132388103949e+003,	 7.7233713448216224e-001,	 8.1019501402155561e+002,	 3.9705420898901843e+003,	 5.4621640135595999e+002,	 3.2339076660305861e+000 
9.7535999999999998e-002,	 0.0000000000000000e+000,	 1.5690788156577696e-002,	 1.7776646757978940e+003,	 2.9571717044555479e-001,	 7.8377787887338377e+002,	 3.5380804055435979e+003,	 5.3723766704808020e+002,	 3.3088981086564382e+000 
1.0058400000000001e-001,	 0.0000000000000000e+000,	 1.4485233898462482e-002,	 1.7878599247305233e+003,	 3.1467225096970525e-001,	 7.5909413096376375e+002,	 3.1633779523409776e+003,	 5.2871029907157015e+002,	 3.3815493202269677e+000 
1.0363200000000000e-001,	 0.0000000000000000e+000,	 1.3583814448297378e-002,	 1.8014790031463388e+003,	 6.7698607849826031e-001,	 7.3978177617600704e+002,	 2.8910480293966220e+003,	 5.2194142615569251e+002,	 3.4514967390475300e+000 
1.0668000000000000e-001,	 0.0000000000000000e+000,	 1.2904215805952178e-002,	 1.8178031971993053e+003,	 9.0349640033597090e-001,	 7.2499645323398477e+002,	 2.6915189190063852e+003,	 5.1669932540493880e+002,	 3.5181068221939520e+000 
1.0972800000000001e-001,	 0.0000000000000000e+000,	 1.2110175580977090e-002,	 1.8285713273922288e+003,	 1.0512341011297393e+000,	 7.0683224643607105e+002,	 2.4626161971669908e+003,	 5.1018552271818919e+002,	 3.5841307683992665e+000 
1.1277600000000000e-001,	 0.0000000000000000e+000,	 1.1139434405630567e-002,	 1.8321418510476351e+003,	 2.6544090425475075e-001,	 6.8341757693604541e+002,	 2.1901770420492576e+003,	 5.0166410286120794e+002,	 3.6521287048977360e+000 
1.1582400000000000e-001,	 0.0000000000000000e+000,	 1.0365921335845456e-002,	 1.8388160334784584e+003,	 2.8143228446537999e-001,	 6.6404426865752157e+002,	 1.9803177443136944e+003,	 4.9450247533947794e+002,	 3.7185173921582968e+000 
1.1887200000000001e-001,	 0.0000000000000000e+000,	 9.8355287828396226e-003,	 1.8499712774361994e+003,	 4.6119423598726100e-001,	 6.5020713615359944e+002,	 1.8398371452899864e+003,	 4.8932321372696885e+002,	 3.7806735569178467e+000 
1.2192000000000000e-001,	 0.0000000000000000e+000,	 9.3957948991864257e-003,	 1.8623295315102650e+003,	 2.8411819367854307e-001,	 6.3850923582034136e+002,	 1.7259596921262264e+003,	 4.8490151984441837e+002,	 3.8406345968567481e+000 
1.2496800000000000e-001,	 0.0000000000000000e+000,	 8.8942899203229703e-003,	 1.8701756969305206e+003,	 5.3161860026282826e-001,	 6.2465431292923563e+002,	 1.5983834056814026e+003,	 4.7961176179857404e+002,	 3.8993534384489323e+000 
1.2801599999999999e-001,	 0.0000000000000000e+000,	 8.3207906669637600e-003,	 1.8732957661684973e+003,	 2.0471229646782713e-001,	 6.0820171775834638e+002,	 1.4559356359882686e+003,	 4.7325343487456053e+002,	 3.9583353005148894e+000 
1.3106400000000001e-001,	 0.0000000000000000e+000,	 7.8252739495636228e-003,	 1.8775812174604275e+003,	 3.3868463180868547e-001,	 5.9353449732503805e+002,	 1.3362122652968853e+003,	 4.6751218713595085e+002,	 4.0161118783005962e+000 
1.3411200000000001e-001,	 0.0000000000000000e+000,	 7.5022652983629846e-003,	 1.8874640690971928e+003,	 7.2026917551064928e-001,	 5.8355298763698408e+002,	 1.2595129934286474e+003,	 4.6356442732979991e+002,	 4.0716329710609598e+000 
1.3716000000000000e-001,	 0.0000000000000000e+000,	 7.2658280250081572e-003,	 1.8999798416795661e+003,	 5.1217792360023706e-001,	 5.7620154874774960e+002,	 1.2044519333064125e+003,	 4.6063524471106535e+002,	 4.1246950434834435e+000 
1.4020800000000000e-001,	 0.0000000000000000e+000,	 6.9198463442976012e-003,	 1.9046693166567140e+003,	 5.2186460792922706e-001,	 5.6488115118260362e+002,	 1.1245621756438627e+003,	 4.5608784198656764e+002,	 4.1761020856290081e+000 
1.4325599999999999e-001,	 0.0000000000000000e+000,	 6.4475974335810619e-003,	 1.9031086871273847e+003,	 1.5716851651247671e-001,	 5.4905740731334868e+002,	 1.0184638211609225e+003,	 4.4965438299432998e+002,	 4.2323810588570980e+000 
1.4630399999999999e-001,	 0.0000000000000000e+000,	 6.1120955523131203e-003,	 1.9051880457300992e+003,	 6.6136771115766546e-001,	 5.3766080959819078e+002,	 9.4542798671036098e+002,	 4.4496325080027833e+002,	 4.2816753003698276e+000 
1.4935200000000001e-001,	 0.0000000000000000e+000,	 5.9388610610168757e-003,	 1.9153294860369710e+003,	 7.9768927415910640e-001,	 5.3143186686185493e+002,	 9.0798922650583029e+002,	 4.4237823346588090e+002,	 4.3296200112296264e+000 
1.5240000000000001e-001,	 0.0000000000000000e+000,	 5.7665386275994393e-003,	 1.9243765696409630e+003,	 1.7439678848125251e-001,	 5.2530783978668637e+002,	 8.7148321186626868e+002,	 4.3982194495598486e+002,	 4.3753537075916178e+000 
1.5544800000000000e-001,	 0.0000000000000000e+000,	 5.5018525365995181e-003,	 1.9257832928532571e+003,	 -1.9666867513293412e-003,	 5.1553454245621128e+002,	 8.1601220258498688e+002,	 4.3571131512462364e+002,	 4.4198606416807014e+000 
1.5849600000000000e-001,	 0.0000000000000000e+000,	 5.2184104405015421e-003,	 1.9245816505565949e+003,	 5.0852395059172495e-001,	 5.0481594818527651e+002,	 7.5788138237428745e+002,	 4.3115803793408895e+002,	 4.4637500600959568e+000 
1.6154399999999999e-001,	 0.0000000000000000e+000,	 5.0420805024544461e-003,	 1.9282050456415600e+003,	 1.1910119411107187e+000,	 4.9793248766080660e+002,	 7.2228762753693059e+002,	 4.2820840248895468e+002,	 4.5029602461452134e+000 
1.6459199999999999e-001,	 0.0000000000000000e+000,	 4.9664887195340528e-003,	 1.9389678808566568e+003,	 9.0879702548790575e-001,	 4.9481896245295508e+002,	 7.0701027453034828e+002,	 4.2686752959696400e+002,	 4.5423180715211515e+000 
1.6764000000000001e-001,	 0.0000000000000000e+000,	 4.8487578320839985e-003,	 1.9471988136354003e+003,	 2.2819264286923233e-001,	 4.9015557614652892e+002,	 6.8374533965578405e+002,	 4.2485127642505711e+002,	 4.5832481507204657e+000 
1.7068800000000001e-001,	 0.0000000000000000e+000,	 4.6237872199998403e-003,	 1.9449480863945455e+003,	 4.6088603354739588e-001,	 4.8092292248715626e+002,	 6.3973963072379195e+002,	 4.2083096923690329e+002,	 4.6216849119456054e+000 
1.7373600000000000e-001,	 0.0000000000000000e+000,	 4.4029142593355330e-003,	 1.9380998554218438e+003,	 1.6431199446908571e+000,	 4.7175128351324065e+002,	 5.9756239079345949e+002,	 4.1679883729240169e+002,	 4.6499663111587175e+000 
1.7678400000000000e-001,	 0.0000000000000000e+000,	 4.3213691625285195e-003,	 1.9423630377782886e+003,	 2.4946183601235656e+000,	 4.6874029558646487e+002,	 5.8275176222150310e+002,	 4.1546658317664469e+002,	 4.6751404766953923e+000 
1.7983199999999999e-001,	 0.0000000000000000e+000,	 4.3047118246868042e-003,	 1.9520714650148102e+003,	 1.8097052417996649e+000,	 4.6991517685621835e+002,	 5.8196047866733204e+002,	 4.1598693360063612e+002,	 4.6926288933624303e+000 
1.8287999999999999e-001,	 0.0000000000000000e+000,	 4.1913273918426537e-003,	 1.9551683522835510e+003,	 4.9581564132586187e-002,	 4.6868329695055587e+002,	 5.6514644417863769e+002,	 4.1544132212198980e+002,	 4.7062442968494897e+000 
1.8592800000000001e-001,	 0.0000000000000000e+000,	 4.0386561990911488e-003,	 1.9472284411135229e+003,	 -2.3946354029853145e+000,	 4.6479739473065297e+002,	 5.4004569307684426e+002,	 4.1371550372123534e+002,	 4.7066882822106404e+000 
1.8897600000000001e-001,	 0.0000000000000000e+000,	 4.0013758242395982e-003,	 1.9433966740681412e+003,	 -6.0926803315238391e+000,	 4.6292072684461425e+002,	 5.3290022999886196e+002,	 4.1287944923773665e+002,	 4.7069579949197546e+000 
1.9202400000000000e-001,	 0.0000000000000000e+000,	 4.2537134265565064e-003,	 1.9480721314588104e+003,	 -9.9971763852891158e+000,	 4.6983955717856838e+002,	 5.7497338762674588e+002,	 4.1595346153482603e+002,	 4.6834513072929411e+000 
1.9507200000000000e-001,	 0.0000000000000000e+000,	 4.7549849978861221e-003,	 1.9506182312982432e+003,	 -1.0482466791644438e+001,	 4.8772804340813076e+002,	 6.6720119568583664e+002,	 4.2379791647921382e+002,	 4.6027748632426126e+000 
1.9811999999999999e-001,	 0.0000000000000000e+000,	 5.1588753084700241e-003,	 1.9399354429250520e+003,	 -7.6954457490518529e+000,	 5.0401366307507476e+002,	 7.4804423130959276e+002,	 4.3081529002699114e+002,	 4.5029755237062572e+000 
2.0116800000000001e-001,	 0.0000000000000000e+000,	 5.2363425981735209e-003,	 1.9187599324332132e+003,	 -9.3393017791481210e+000,	 5.0796254130969271e+002,	 7.6522593050528496e+002,	 4.3249968669758533e+002,	 4.4364949159555582e+000 
2.0421600000000001e-001,	 0.0000000000000000e+000,	 5.4030484168450773e-003,	 1.9077520920125505e+003,	 -9.8345802117752328e+000,	 5.1644006169254976e+002,	 8.0276553936107905e+002,	 4.3609380344070257e+002,	 4.3746951360629751e+000 
2.0726400000000000e-001,	 0.0000000000000000e+000,	 5.7580768902547232e-003,	 1.9119801423615791e+003,	 -9.6642031130529595e+000,	 5.3041241793479708e+002,	 8.7866045410344884e+002,	 4.4195372137725326e+002,	 4.3262551571145771e+000 
2.1031200000000000e-001,	 0.0000000000000000e+000,	 5.9882117388537475e-003,	 1.9215330032838501e+003,	 -9.8306890145129469e+000,	 5.3919143542873417e+002,	 9.2890237003927700e+002,	 4.4559616675645157e+002,	 4.3123309707347808e+000 
2.1335999999999999e-001,	 0.0000000000000000e+000,	 5.9309835534942269e-003,	 1.9178200650029994e+003,	 -6.4323249084291767e+000,	 5.3539884103639804e+002,	 9.1355370645237042e+002,	 4.4402627186128757e+002,	 4.3191832858654822e+000 
2.1640799999999999e-001,	 0.0000000000000000e+000,	 5.6646496733398794e-003,	 1.9029684025097058e+003,	 -4.7909692879498100e-001,	 5.2414148739727216e+002,	 8.5418419348527095e+002,	 4.3933340052227641e+002,	 4.3314905275968005e+000 
2.1945600000000001e-001,	 0.0000000000000000e+000,	 5.5606799495593780e-003,	 1.8988956156007357e+003,	 2.2195382609645158e+000,	 5.2156774838685055e+002,	 8.3438899146402605e+002,	 4.3825342399123110e+002,	 4.3328741061933789e+000 
2.2250400000000001e-001,	 0.0000000000000000e+000,	 5.7684651255016000e-003,	 1.9142445474912154e+003,	 3.7542183263577016e+000,	 5.2944263013747093e+002,	 8.7863624812159901e+002,	 4.4154951004965807e+002,	 4.3352969153125462e+000 
2.2555200000000000e-001,	 0.0000000000000000e+000,	 6.0232461484300698e-003,	 1.9280847108262142e+003,	 1.5659767694812807e+000,	 5.3756499575366593e+002,	 9.3151859855001783e+002,	 4.4492360169574857e+002,	 4.3335200457228584e+000 
2.2860000000000000e-001,	 0.0000000000000000e+000,	 6.1010956466140704e-003,	 1.9261019611477539e+003,	 -1.9782796602917578e+000,	 5.3941537262623001e+002,	 9.4680619318462209e+002,	 4.4568868973776136e+002,	 4.3216330623427002e+000 
2.3164799999999999e-001,	 0.0000000000000000e+000,	 5.9144966614437895e-003,	 1.9114758043452123e+003,	 -3.4256441765680510e+000,	 5.3225452756939080e+002,	 9.0566397479052250e+002,	 4.4272050354939842e+002,	 4.3175747647683371e+000 
2.3469599999999999e-001,	 0.0000000000000000e+000,	 5.7729774538246275e-003,	 1.9053395232647317e+003,	 -4.0750001093898494e+000,	 5.2932351489245798e+002,	 8.7912572089855837e+002,	 4.4149983683327355e+002,	 4.3156162742470379e+000 
2.3774400000000001e-001,	 0.0000000000000000e+000,	 5.8925853634406375e-003,	 1.9121820075016985e+003,	 -2.0759840002109917e+000,	 5.3399287166852196e+002,	 9.0525572442114844e+002,	 4.4344287713193222e+002,	 4.3121295504342614e+000 
2.4079200000000001e-001,	 0.0000000000000000e+000,	 6.1291979040806457e-003,	 1.9202807575004426e+003,	 -2.5183644506462055e-001,	 5.4075843529595977e+002,	 9.5353553993504511e+002,	 4.4624319349934296e+002,	 4.3032158293679288e+000 
2.4383999999999989e-001,	 0.0000000000000000e+000,	 6.1623766384122820e-003,	 1.9143362650997908e+003,	 -1.8304449498416835e+000,	 5.4290306674797398e+002,	 9.6249940745923095e+002,	 4.4712721131343483e+002,	 4.2814149793997531e+000 
2.4688800000000000e-001,	 0.0000000000000000e+000,	 6.0409401107172963e-003,	 1.9045676426575988e+003,	 -3.1402916834417427e+000,	 5.4050963545604463e+002,	 9.3937264254792001e+002,	 4.4614052472774864e+002,	 4.2689917772163266e+000 
2.4993599999999999e-001,	 0.0000000000000000e+000,	 6.0831607395220415e-003,	 1.9022349270614429e+003,	 -2.6231050975127248e+000,	 5.3986584642112120e+002,	 9.4481130968432126e+002,	 4.4587475152461332e+002,	 4.2663028779586369e+000 
2.5298399999999988e-001,	 0.0000000000000000e+000,	 6.2579070410203851e-003,	 1.9109681296112271e+003,	 -1.7588749300421724e+000,	 5.4380850711527273e+002,	 9.7905038439753480e+002,	 4.4749990986071117e+002,	 4.2703225116832941e+000 
2.5603199999999998e-001,	 0.0000000000000000e+000,	 6.3270493264386430e-003,	 1.9153706289985789e+003,	 -1.9404197369174090e+000,	 5.4666002668098622e+002,	 9.9505818399786995e+002,	 4.4867163328915450e+002,	 4.2689830820263799e+000 
2.5907999999999998e-001,	 0.0000000000000000e+000,	 6.2566497663257038e-003,	 1.9087254104561778e+003,	 -2.1846036146783582e-001,	 5.4494178513721454e+002,	 9.8089358064952728e+002,	 4.4796595430881064e+002,	 4.2608716233871542e+000 
2.6212800000000003e-001,	 0.0000000000000000e+000,	 6.1901989480500647e-003,	 1.9005917146240699e+003,	 1.3532387933799092e-001,	 5.4310266926146062e+002,	 9.6720043210273866e+002,	 4.4720939864948667e+002,	 4.2498921650153108e+000 
2.6517600000000002e-001,	 0.0000000000000000e+000,	 6.3009018012927694e-003,	 1.9035361847445974e+003,	 -1.2633448927844393e+000,	 5.4718353696057147e+002,	 9.9189493151084969e+002,	 4.4888641760964401e+002,	 4.2405751862829693e+000 
2.6822400000000002e-001,	 0.0000000000000000e+000,	 6.5046023747152093e-003,	 1.9161492054332193e+003,	 -2.2480867719496485e+000,	 5.5431740900892169e+002,	 1.0373115394443817e+003,	 4.5180310652575110e+002,	 4.2411185237982796e+000 
2.7127200000000001e-001,	 0.0000000000000000e+000,	 6.5404464295052301e-003,	 1.9196037358330937e+003,	 -2.2471955038781695e+000,	 5.5516331606789754e+002,	 1.0446194108606189e+003,	 4.5214770849549956e+002,	 4.2455264399468371e+000 
2.7432000000000001e-001,	 0.0000000000000000e+000,	 6.2411161619076415e-003,	 1.9021895656370380e+003,	 -1.7269098159119864e+000,	 5.4433671133782843e+002,	 9.7737185465707341e+002,	 4.4771718668660549e+002,	 4.2486426835767235e+000 
2.7736799999999989e-001,	 0.0000000000000000e+000,	 6.0515322727541301e-003,	 1.8893231689374593e+003,	 2.9898090619861162e-001,	 5.3873550865847380e+002,	 9.3793100505841244e+002,	 4.4540773443673010e+002,	 4.2417835311801166e+000 
2.8041599999999989e-001,	 0.0000000000000000e+000,	 6.2597921173816531e-003,	 1.8983758081929491e+003,	 8.2804480946274972e-001,	 5.4559312469667225e+002,	 9.8255922449809202e+002,	 4.4823358914682217e+002,	 4.2352381319684174e+000 
2.8346399999999988e-001,	 0.0000000000000000e+000,	 6.5773403378012098e-003,	 1.9164045252294161e+003,	 -1.0320624210862603e+000,	 5.5669425883978124e+002,	 1.0534089272217673e+003,	 4.5277071048810825e+002,	 4.2326165512503851e+000 
2.8651199999999988e-001,	 0.0000000000000000e+000,	 6.6637723033631698e-003,	 1.9226475674849030e+003,	 -2.5284308903147865e+000,	 5.5952597775036668e+002,	 1.0726803904040307e+003,	 4.5392079697397799e+002,	 4.2356491327184349e+000 
2.8955999999999987e-001,	 0.0000000000000000e+000,	 6.3304217568970755e-003,	 1.9034781554745507e+003,	 -1.6374613277112540e+000,	 5.4695709365434845e+002,	 9.9612959233518382e+002,	 4.4879352570398635e+002,	 4.2413242410285754e+000 
2.9260799999999998e-001,	 0.0000000000000000e+000,	 6.0331038274760770e-003,	 1.8852842947597364e+003,	 8.1747159848660322e-001,	 5.3899286679509396e+002,	 9.3552146056767560e+002,	 4.4551410910126435e+002,	 4.2317054240850593e+000 
2.9565599999999997e-001,	 0.0000000000000000e+000,	 6.2594266295912188e-003,	 1.8944022309155207e+003,	 2.3253518800815818e+000,	 5.4578848971244452e+002,	 9.8285366875251907e+002,	 4.4831383330726015e+002,	 4.2256194597164054e+000 
2.9870400000000003e-001,	 0.0000000000000000e+000,	 6.7128747050117458e-003,	 1.9171833712055395e+003,	 1.1101009742975030e+000,	 5.6049082490604746e+002,	 1.0824478605058418e+003,	 4.5431199913742967e+002,	 4.2199715090835470e+000 
3.0175200000000002e-001,	 0.0000000000000000e+000,	 6.8950066409945851e-003,	 1.9280669317199608e+003,	 -2.7916862882793674e+000,	 5.6782136355893294e+002,	 1.1263577576751695e+003,	 4.5727327246874307e+002,	 4.2164479510873276e+000 
3.0480000000000002e-001,	 0.0000000000000000e+000,	 6.5373627185340896e-003,	 1.9102515951741327e+003,	 -2.9522420667309239e+000,	 5.5465354515705667e+002,	 1.0431681354613092e+003,	 4.5194007168099790e+002,	 4.2267857978882066e+000 
0.0000000000000000e+000,	 6.5730119999999996e-004,	 4.4550043374310566e-002,	 1.5329000028578016e+003,	 -1.8803991475283699e-005,	 1.1883330097023427e+003,	 1.5230572555636752e+004,	 6.6151399133457267e+002,	 2.3172601380134825e+000 
3.0479999999999999e-003,	 6.5825326865089995e-004,	 4.4550003458363553e-002,	 1.5328999968298122e+003,	 -1.6694476797986325e-006,	 1.1883330097361552e+003,	 1.5230558909782010e+004,	 6.6151399134398400e+002,	 2.3172601288681007e+000 
6.0959999999999999e-003,	 6.6461592907580004e-004,	 4.4550023910222981e-002,	 1.5328999972938007e+003,	 5.6321655705992947e-006,	 1.1883329984274276e+003,	 1.5230565756832484e+004,	 6.6151398819634710e+002,	 2.3172601405955655e+000 
9.1439999999999994e-003,	 6.7224283956379997e-004,	 4.4550039851672732e-002,	 1.5328999942978908e+003,	 5.8993833821343232e-006,	 1.1883330121241843e+003,	 1.5230571382372995e+004,	 6.6151399200866081e+002,	 2.3172601227122969e+000 
1.2192000000000000e-002,	 6.8039503864980003e-004,	 4.4550077744974916e-002,	 1.5328999447701322e+003,	 1.2781876696414112e-005,	 1.1883330561527919e+003,	 1.5230584901472521e+004,	 6.6151400426344935e+002,	 2.3172600049138969e+000 
1.5240000000000000e-002,	 6.8896921147369998e-004,	 4.4550137810402048e-002,	 1.5328999148191915e+003,	 3.9443059046140375e-005,	 1.1883331240097718e+003,	 1.5230606306085025e+004,	 6.6151402315055418e+002,	 2.3172598934766930e+000 
1.8287999999999999e-002,	 6.9790389080560001e-004,	 4.4550238750866694e-002,	 1.5328996283838305e+003,	 1.1824003632990517e-004,	 1.1883333347814780e+003,	 1.5230643516590766e+004,	 6.6151408181610429e+002,	 2.3172592549737576e+000 
2.1336000000000001e-002,	 7.0716313557659999e-004,	 4.4550398776015826e-002,	 1.5328996326083670e+003,	 2.6789980347566165e-004,	 1.1883336131274070e+003,	 1.5230701792818621e+004,	 6.6151415929004850e+002,	 2.3172589899716312e+000 
2.4383999999999999e-002,	 7.1672498233810004e-004,	 4.4550656380756733e-002,	 1.5328982913581892e+003,	 4.6423998708476454e-004,	 1.1883346759260689e+003,	 1.5230803483454300e+004,	 6.6151445510605436e+002,	 2.3172559261951493e+000 
2.7432000000000002e-002,	 7.2654568335240005e-004,	 4.4551068829524317e-002,	 1.5328990900259253e+003,	 7.8179364154174586e-004,	 1.1883353826297521e+003,	 1.5230953547675721e+004,	 6.6151465180764103e+002,	 2.3172564444904689e+000 
3.0480000000000000e-002,	 7.3659166246549997e-004,	 4.4551622075808775e-002,	 1.5328947727584614e+003,	 3.3119427127899627e-004,	 1.1883399767503606e+003,	 1.5231201573258673e+004,	 6.6151593051868576e+002,	 2.3172454389066259e+000 
3.3528000000000002e-002,	 7.4684782576880005e-004,	 4.4554156345152710e-002,	 1.5328846869704885e+003,	 -5.7474244040289597e-003,	 1.1883554738263765e+003,	 1.5232266623733869e+004,	 6.6152024390098347e+002,	 2.3172150831573126e+000 
3.6575999999999997e-002,	 7.5729429427989997e-004,	 4.4550648602534049e-002,	 1.5329055793586947e+003,	 1.9839175334242051e-002,	 1.1883221714040553e+003,	 1.5230640554698875e+004,	 6.6151097462871303e+002,	 2.3172791356144189e+000 
3.9623999999999999e-002,	 7.6791011237950003e-004,	 4.4530981038839186e-002,	 1.5330512475694250e+003,	 8.1986952308905056e-002,	 1.1881069693153838e+003,	 1.5221159743831442e+004,	 6.6145107294858769e+002,	 2.3177092191078779e+000 
4.2672000000000002e-002,	 7.7868004371589995e-004,	 4.4487465196505531e-002,	 1.5333426665098311e+003,	 1.6048073484900216e-001,	 1.1876585433973971e+003,	 1.5200546277438603e+004,	 6.6132623578956009e+002,	 2.3185873959426107e+000 
4.5719999999999997e-002,	 7.8959730561900001e-004,	 4.4443403402362351e-002,	 1.5335196272745025e+003,	 2.7853305468729109e-002,	 1.1872192484904692e+003,	 1.5179874317494407e+004,	 6.6120391775541418e+002,	 2.3192839400185106e+000 
4.8767999999999999e-002,	 8.0062672720359999e-004,	 4.4597808651304402e-002,	 1.5322760845355722e+003,	 -1.1295709909293306e+000,	 1.1889795018961645e+003,	 1.5255197153827103e+004,	 6.6169390953850257e+002,	 2.3156877807075658e+000 
5.1816000000000001e-002,	 8.1176164098530003e-004,	 4.5192744805829951e-002,	 1.5281093461559044e+003,	 -2.6551681939490352e+000,	 1.1955159617155186e+003,	 1.5543686757528967e+004,	 6.6351026025360341e+002,	 2.3030716244167913e+000 
5.4864000000000003e-002,	 8.2298752711009999e-004,	 4.5868786982932050e-002,	 1.5235941452853444e+003,	 -2.2498638554970412e+000,	 1.2024199352646708e+003,	 1.5867311971593699e+004,	 6.6542335174430934e+002,	 2.2896638695608478e+000 
5.7911999999999998e-002,	 8.3429685014089995e-004,	 4.5730403645285668e-002,	 1.5246735878405505e+003,	 1.6177208256197455e+000,	 1.2008668469653269e+003,	 1.5799008305195041e+004,	 6.6499347066828784e+002,	 2.2927660395392153e+000 
6.0960000000000000e-002,	 8.4568656728430005e-004,	 4.4063762820986764e-002,	 1.5357381428423710e+003,	 8.8431122262671451e+000,	 1.1838629267529550e+003,	 1.5007658509651339e+004,	 6.6026862978755912e+002,	 2.3259678464527704e+000 
6.4007999999999995e-002,	 8.5714426976289996e-004,	 4.1043441021904048e-002,	 1.5560364807475903e+003,	 1.6200204505102040e+001,	 1.1511442836112628e+003,	 1.3592628986825626e+004,	 6.5108071862672659e+002,	 2.3900581997209409e+000 
6.7056000000000004e-002,	 8.6865439963430000e-004,	 3.7522059705586266e-002,	 1.5814589329064290e+003,	 2.1005311694582257e+001,	 1.1105832507156147e+003,	 1.1988579484572627e+004,	 6.3950731017533292e+002,	 2.4731514407248190e+000 
7.0104000000000000e-002,	 8.8019974984389999e-004,	 3.4285439990361072e-002,	 1.6088780733063318e+003,	 2.4143296013364370e+001,	 1.0713441174114166e+003,	 1.0567412341868780e+004,	 6.2810817834171758e+002,	 2.5617549162409050e+000 
7.3151999999999995e-002,	 8.9177341889660003e-004,	 3.1325378270798211e-002,	 1.6360377448681518e+003,	 2.2284786281138846e+001,	 1.0331831870573751e+003,	 9.3111557618238567e+003,	 6.1682024388317927e+002,	 2.6526196679579490e+000 
7.6200000000000004e-002,	 9.0338003509370004e-004,	 2.8334361196953525e-002,	 1.6591098602341426e+003,	 1.8111577621255595e+001,	 9.9245273896493291e+002,	 8.0900871108335577e+003,	 6.0453976223839561e+002,	 2.7445816105541119e+000 
7.9247999999999999e-002,	 9.1500359108569998e-004,	 2.5594535465886949e-002,	 1.6788469694531532e+003,	 1.8174475438086194e+001,	 9.5299517031054143e+002,	 7.0172651816333673e+003,	 5.9240034585504691e+002,	 2.8341397044191612e+000 