TITLE = "Final State"
VARIABLES = "X", "Y", "rho", "u", "v", "T", "p", "c", "M"
ZONE I=101, J=101, DATAPACKING=POINT
0.000000,	 0.000000,	 0.044550,	 1532.900000,	 -0.000000,	 1188.333000,	 15230.557603,	 661.513989,	 2.317260 
0.030000,	 0.000000,	 0.044550,	 1532.900000,	 -0.000000,	 1188.333000,	 15230.557603,	 661.513989,	 2.317260 
0.060000,	 0.000000,	 0.044550,	 1532.900000,	 -0.000000,	 1188.333000,	 15230.557603,	 661.513989,	 2.317260 
0.090000,	 0.000000,	 0.044550,	 1532.900000,	 -0.000000,	 1188.333000,	 15230.557603,	 661.513989,	 2.317260 
0.120000,	 0.000000,	 0.044550,	 1532.900000,	 -0.000000,	 1188.333000,	 15230.557603,	 661.513989,	 2.317260 
0.150000,	 0.000000,	 0.044550,	 1532.900000,	 -0.000000,	 1188.333000,	 15230.557603,	 661.513989,	 2.317260 
0.180000,	 0.000000,	 0.044550,	 1532.900000,	 -0.000000,	 1188.333000,	 15230.557603,	 661.513989,	 2.317260 
0.210000,	 0.000000,	 0.044550,	 1532.900000,	 0.000000,	 1188.333000,	 15230.557603,	 661.513989,	 2.317260 
0.240000,	 0.000000,	 0.044550,	 1532.900000,	 0.000000,	 1188.333000,	 15230.557603,	 661.513989,	 2.317260 
0.270000,	 0.000000,	 0.044550,	 1532.900000,	 -0.000000,	 1188.333000,	 15230.557603,	 661.513989,	 2.317260 
0.300000,	 0.000000,	 0.044550,	 1532.900000,	 0.000000,	 1188.333000,	 15230.557603,	 661.513989,	 2.317260 
0.330000,	 0.000000,	 0.044550,	 1532.900000,	 0.000000,	 1188.333000,	 15230.557603,	 661.513989,	 2.317260 
0.360000,	 0.000000,	 0.044550,	 1532.900000,	 0.000000,	 1188.333000,	 15230.557603,	 661.513989,	 2.317260 
0.390000,	 0.000000,	 0.044550,	 1532.900000,	 0.000000,	 1188.333000,	 15230.557603,	 661.513989,	 2.317260 
0.420000,	 0.000000,	 0.044550,	 1532.900000,	 0.000000,	 1188.333000,	 15230.557603,	 661.513989,	 2.317260 
0.450000,	 0.000000,	 0.044550,	 1532.900000,	 0.000000,	 1188.333000,	 15230.557603,	 661.513989,	 2.317260 
0.480000,	 0.000000,	 0.044550,	 1532.900000,	 0.000000,	 1188.333000,	 15230.557603,	 661.513989,	 2.317260 
0.510000,	 0.000000,	 0.044550,	 1532.900000,	 0.000000,	 1188.333000,	 15230.557603,	 661.513989,	 2.317260 
0.540000,	 0.000000,	 0.044550,	 1532.900000,	 -0.000000,	 1188.333000,	 15230.557603,	 661.513989,	 2.317260 
0.570000,	 0.000000,	 0.044550,	 1532.900000,	 -0.000000,	 1188.333000,	 15230.557603,	 661.513989,	 2.317260 
0.600000,	 0.000000,	 0.044550,	 1532.900000,	 0.000000,	 1188.333000,	 15230.557603,	 661.513989,	 2.317260 
0.630000,	 0.000000,	 0.044550,	 1532.900000,	 0.000000,	 1188.333000,	 15230.557603,	 661.513989,	 2.317260 
0.660000,	 0.000000,	 0.044550,	 1532.900000,	 0.000000,	 1188.333000,	 15230.557603,	 661.513989,	 2.317260 
0.690000,	 0.000000,	 0.044550,	 1532.900000,	 0.000000,	 1188.333000,	 15230.557603,	 661.513989,	 2.317260 
0.720000,	 0.000000,	 0.044550,	 1532.900000,	 0.000000,	 1188.333000,	 15230.557603,	 661.513989,	 2.317260 
0.750000,	 0.000000,	 0.044550,	 1532.900000,	 0.000000,	 1188.333000,	 15230.557603,	 661.513989,	 2.317260 
0.780000,	 0.000000,	 0.044550,	 1532.900000,	 0.000000,	 1188.333000,	 15230.557603,	 661.513989,	 2.317260 
0.810000,	 0.000000,	 0.044550,	 1532.900000,	 0.000000,	 1188.333000,	 15230.557603,	 661.513989,	 2.317260 
0.840000,	 0.000000,	 0.044550,	 1532.900000,	 0.000000,	 1188.333000,	 15230.557603,	 661.513989,	 2.317260 
0.870000,	 0.000000,	 0.044550,	 1532.900000,	 0.000000,	 1188.333000,	 15230.557603,	 661.513989,	 2.317260 
0.900000,	 0.000000,	 0.044550,	 1532.900000,	 0.000000,	 1188.333000,	 15230.557603,	 661.513989,	 2.317260 
0.930000,	 0.000000,	 0.044550,	 1532.900000,	 -0.000000,	 1188.333000,	 15230.557603,	 661.513989,	 2.317260 
0.960000,	 0.000000,	 0.044550,	 1532.900000,	 -0.000000,	 1188.333000,	 15230.557603,	 661.513989,	 2.317260 
0.990000,	 0.000000,	 0.044424,	 1522.886034,	 50.865516,	 1188.925545,	 15195.034954,	 661.678895,	 2.302832 
1.020000,	 0.005000,	 0.047466,	 1473.985662,	 211.735691,	 1222.183533,	 16689.818211,	 670.869685,	 2.219680 
1.050000,	 0.012500,	 0.057687,	 1397.369057,	 311.976764,	 1291.334538,	 21431.386554,	 689.587431,	 2.076273 
1.080000,	 0.020000,	 0.062652,	 1372.206810,	 335.633893,	 1314.213246,	 23688.192429,	 695.669357,	 2.030645 
1.110000,	 0.027500,	 0.063234,	 1371.163725,	 338.034660,	 1315.200423,	 23926.314801,	 695.930585,	 2.029250 
1.140000,	 0.035000,	 0.063127,	 1372.663525,	 338.027922,	 1314.483305,	 23872.687848,	 695.740830,	 2.031894 
1.170000,	 0.042500,	 0.063232,	 1372.908603,	 339.132881,	 1314.506322,	 23912.629037,	 695.746921,	 2.032599 
1.200000,	 0.050000,	 0.063299,	 1373.274790,	 340.098274,	 1314.442708,	 23936.950503,	 695.730086,	 2.033492 
1.230000,	 0.057500,	 0.063368,	 1373.510195,	 340.812897,	 1314.561690,	 23965.232100,	 695.761574,	 2.033976 
1.260000,	 0.065000,	 0.063418,	 1373.764757,	 341.346101,	 1314.671761,	 23985.965198,	 695.790702,	 2.034430 
1.290000,	 0.072500,	 0.063458,	 1373.995509,	 341.850493,	 1314.731282,	 24002.292495,	 695.806452,	 2.034881 
1.320000,	 0.080000,	 0.063484,	 1374.297497,	 342.231734,	 1314.567091,	 24009.140508,	 695.763003,	 2.035562 
1.350000,	 0.087500,	 0.063504,	 1374.583696,	 342.463848,	 1314.510948,	 24015.621707,	 695.748145,	 2.036085 
1.380000,	 0.095000,	 0.063546,	 1374.730424,	 342.642917,	 1314.528371,	 24031.870936,	 695.752756,	 2.036338 
1.410000,	 0.102500,	 0.063566,	 1374.930207,	 342.866416,	 1314.552967,	 24039.737898,	 695.759265,	 2.036675 
1.440000,	 0.110000,	 0.063578,	 1375.157350,	 343.079552,	 1314.470178,	 24042.891164,	 695.737356,	 2.037130 
1.470000,	 0.117500,	 0.063589,	 1375.398048,	 343.222779,	 1314.296975,	 24043.758090,	 695.691517,	 2.037650 
1.500000,	 0.125000,	 0.063599,	 1375.608365,	 343.313108,	 1314.210416,	 24046.240012,	 695.668608,	 2.038042 
1.530000,	 0.132500,	 0.063623,	 1375.725314,	 343.405938,	 1314.194812,	 24055.103599,	 695.664478,	 2.038250 
1.560000,	 0.140000,	 0.063634,	 1375.881339,	 343.523843,	 1314.164590,	 24058.357925,	 695.656479,	 2.038532 
1.590000,	 0.147500,	 0.063636,	 1376.062536,	 343.622804,	 1314.092855,	 24058.143268,	 695.637492,	 2.038875 
1.620000,	 0.155000,	 0.063643,	 1376.220938,	 343.709071,	 1313.995593,	 24058.844346,	 695.611748,	 2.039201 
1.650000,	 0.162500,	 0.063648,	 1376.385903,	 343.776921,	 1313.870291,	 24058.236484,	 695.578580,	 2.039552 
1.680000,	 0.170000,	 0.063659,	 1376.491028,	 343.817997,	 1313.856439,	 24062.424311,	 695.574913,	 2.039724 
1.710000,	 0.177500,	 0.063675,	 1376.564088,	 343.863940,	 1313.844123,	 24068.301455,	 695.571653,	 2.039851 
1.740000,	 0.185000,	 0.063682,	 1376.667787,	 343.929755,	 1313.813654,	 24070.284702,	 695.563588,	 2.040042 
1.770000,	 0.192500,	 0.063679,	 1376.819124,	 343.997185,	 1313.722138,	 24067.431393,	 695.539362,	 2.040348 
1.800000,	 0.200000,	 0.063675,	 1376.961052,	 344.048528,	 1313.670626,	 24065.144674,	 695.525726,	 2.040604 
1.830000,	 0.207500,	 0.063674,	 1377.071209,	 344.090034,	 1313.700720,	 24065.192451,	 695.533692,	 2.040749 
1.860000,	 0.215000,	 0.063679,	 1377.135933,	 344.117652,	 1313.801774,	 24069.037490,	 695.560443,	 2.040770 
1.890000,	 0.222500,	 0.063687,	 1377.194153,	 344.142975,	 1313.859121,	 24073.148980,	 695.575624,	 2.040816 
1.920000,	 0.230000,	 0.063689,	 1377.277116,	 344.181959,	 1313.897826,	 24074.440434,	 695.585869,	 2.040915 
1.950000,	 0.237500,	 0.063689,	 1377.358509,	 344.224082,	 1313.950236,	 24075.369031,	 695.599742,	 2.041002 
1.980000,	 0.245000,	 0.060823,	 1393.039955,	 319.624210,	 1303.914269,	 22816.486780,	 692.938151,	 2.062576 
2.010000,	 0.250000,	 0.046269,	 1482.199551,	 177.888921,	 1236.022540,	 16452.913864,	 674.657183,	 2.212733 
2.040000,	 0.250000,	 0.031589,	 1584.329126,	 -35.103586,	 1130.918410,	 10277.674383,	 645.335551,	 2.455650 
2.070000,	 0.250000,	 0.033011,	 1576.042744,	 -17.930821,	 1137.127379,	 10799.330059,	 647.104637,	 2.435688 
2.100000,	 0.250000,	 0.034634,	 1568.657224,	 -4.830033,	 1140.674728,	 11365.583394,	 648.113195,	 2.420356 
2.130000,	 0.250000,	 0.035388,	 1563.387532,	 1.841693,	 1144.719083,	 11654.182702,	 649.261147,	 2.407950 
2.160000,	 0.250000,	 0.035543,	 1562.184072,	 0.528321,	 1145.947208,	 11717.775960,	 649.609338,	 2.404806 
2.190000,	 0.250000,	 0.035812,	 1560.080415,	 -0.132876,	 1148.463248,	 11832.573342,	 650.322087,	 2.398935 
2.220000,	 0.250000,	 0.036112,	 1557.762852,	 -0.064241,	 1151.232826,	 11960.324151,	 651.105758,	 2.392488 
2.250000,	 0.250000,	 0.036399,	 1555.555041,	 -0.029008,	 1153.867469,	 12082.888920,	 651.850373,	 2.386368 
2.280000,	 0.250000,	 0.036662,	 1553.532468,	 0.009087,	 1156.277696,	 12195.755955,	 652.530818,	 2.380780 
2.310000,	 0.250000,	 0.036912,	 1551.619329,	 -0.012046,	 1158.554194,	 12303.070052,	 653.172859,	 2.375511 
2.340000,	 0.250000,	 0.037155,	 1549.765024,	 -0.019284,	 1160.758005,	 12407.662405,	 653.793799,	 2.370419 
2.370000,	 0.250000,	 0.037393,	 1547.960380,	 -0.024539,	 1162.900283,	 12510.032054,	 654.396837,	 2.365477 
2.400000,	 0.250000,	 0.037622,	 1546.221057,	 -0.018752,	 1164.962666,	 12609.215907,	 654.976861,	 2.360726 
2.430000,	 0.250000,	 0.037844,	 1544.548075,	 -0.020473,	 1166.944150,	 12705.107051,	 655.533649,	 2.356169 
2.460000,	 0.250000,	 0.038057,	 1542.946621,	 -0.018480,	 1168.838894,	 12797.367451,	 656.065621,	 2.351818 
2.490000,	 0.250000,	 0.038259,	 1541.432483,	 -0.012748,	 1170.628497,	 12885.009249,	 656.567679,	 2.347713 
2.520000,	 0.250000,	 0.038449,	 1540.013648,	 -0.007441,	 1172.303805,	 12967.475157,	 657.037324,	 2.343875 
2.550000,	 0.250000,	 0.038628,	 1538.681517,	 -0.006450,	 1173.875267,	 13045.188902,	 657.477552,	 2.340280 
2.580000,	 0.250000,	 0.038797,	 1537.418144,	 -0.009279,	 1175.364337,	 13119.157507,	 657.894428,	 2.336877 
2.610000,	 0.250000,	 0.038960,	 1536.210799,	 -0.012195,	 1176.786244,	 13190.108262,	 658.292254,	 2.333630 
2.640000,	 0.250000,	 0.039116,	 1535.060513,	 -0.011221,	 1178.139940,	 13257.952702,	 658.670773,	 2.330543 
2.670000,	 0.250000,	 0.039262,	 1534.005241,	 -0.007518,	 1179.414553,	 13322.081958,	 659.026980,	 2.327682 
2.700000,	 0.250000,	 0.039401,	 1533.045619,	 -0.009446,	 1180.615246,	 13382.687046,	 659.362353,	 2.325043 
2.730000,	 0.250000,	 0.039534,	 1532.131091,	 -0.011882,	 1181.765748,	 13440.943575,	 659.683547,	 2.322524 
2.760000,	 0.250000,	 0.039663,	 1531.238414,	 -0.014870,	 1182.884979,	 13497.797200,	 659.995861,	 2.320073 
2.790000,	 0.250000,	 0.039792,	 1530.351863,	 -0.019328,	 1183.987474,	 13554.000055,	 660.303360,	 2.317650 
2.820000,	 0.250000,	 0.039918,	 1529.474564,	 -0.019915,	 1185.069214,	 13609.363993,	 660.604932,	 2.315264 
2.850000,	 0.250000,	 0.040038,	 1528.635549,	 -0.013737,	 1186.103548,	 13662.494160,	 660.893158,	 2.312984 
2.880000,	 0.250000,	 0.040152,	 1527.857281,	 -0.007856,	 1187.070794,	 13712.319784,	 661.162577,	 2.310865 
2.910000,	 0.250000,	 0.040258,	 1527.133413,	 -0.007170,	 1187.976715,	 13759.097972,	 661.414814,	 2.308889 
2.940000,	 0.250000,	 0.040359,	 1526.444084,	 -0.009453,	 1188.838712,	 13803.717778,	 661.654732,	 2.307010 
2.970000,	 0.250000,	 0.040457,	 1525.778999,	 -0.010537,	 1189.666546,	 13846.681077,	 661.885060,	 2.305202 
3.000000,	 0.250000,	 0.040551,	 1525.067012,	 0.006627,	 1190.473664,	 13888.457664,	 662.109547,	 2.303345 
0.000000,	 0.014851,	 0.044550,	 1532.900000,	 -0.000000,	 1188.333000,	 15230.557603,	 661.513989,	 2.317260 
0.030000,	 0.014851,	 0.044550,	 1532.900000,	 -0.000000,	 1188.333000,	 15230.557603,	 661.513989,	 2.317260 
0.060000,	 0.014851,	 0.044550,	 1532.900000,	 0.000000,	 1188.333000,	 15230.557603,	 661.513989,	 2.317260 
0.090000,	 0.014851,	 0.044550,	 1532.900000,	 0.000000,	 1188.333000,	 15230.557603,	 661.513989,	 2.317260 
0.120000,	 0.014851,	 0.044550,	 1532.900000,	 -0.000000,	 1188.333000,	 15230.557603,	 661.513989,	 2.317260 
0.150000,	 0.014851,	 0.044550,	 1532.900000,	 0.000000,	 1188.333000,	 15230.557603,	 661.513989,	 2.317260 
0.180000,	 0.014851,	 0.044550,	 1532.900000,	 0.000000,	 1188.333000,	 15230.557603,	 661.513989,	 2.317260 
0.210000,	 0.014851,	 0.044550,	 1532.900000,	 0.000000,	 1188.333000,	 15230.557603,	 661.513989,	 2.317260 
0.240000,	 0.014851,	 0.044550,	 1532.900000,	 0.000000,	 1188.333000,	 15230.557603,	 661.513989,	 2.317260 
0.270000,	 0.014851,	 0.044550,	 1532.900000,	 -0.000000,	 1188.333000,	 15230.557603,	 661.513989,	 2.317260 
0.300000,	 0.014851,	 0.044550,	 1532.900000,	 0.000000,	 1188.333000,	 15230.557603,	 661.513989,	 2.317260 
0.330000,	 0.014851,	 0.044550,	 1532.900000,	 0.000000,	 1188.333000,	 15230.557603,	 661.513989,	 2.317260 
0.360000,	 0.014851,	 0.044550,	 1532.900000,	 0.000000,	 1188.333000,	 15230.557603,	 661.513989,	 2.317260 
0.390000,	 0.014851,	 0.044550,	 1532.900000,	 0.000000,	 1188.333000,	 15230.557603,	 661.513989,	 2.317260 
0.420000,	 0.014851,	 0.044550,	 1532.900000,	 0.000000,	 1188.333000,	 15230.557603,	 661.513989,	 2.317260 
0.450000,	 0.014851,	 0.044550,	 1532.900000,	 0.000000,	 1188.333000,	 15230.557603,	 661.513989,	 2.317260 
0.480000,	 0.014851,	 0.044550,	 1532.900000,	 0.000000,	 1188.333000,	 15230.557603,	 661.513989,	 2.317260 
0.510000,	 0.014851,	 0.044550,	 1532.900000,	 0.000000,	 1188.333000,	 15230.557603,	 661.513989,	 2.317260 
0.540000,	 0.014851,	 0.044550,	 1532.900000,	 -0.000000,	 1188.333000,	 15230.557603,	 661.513989,	 2.317260 
0.570000,	 0.014851,	 0.044550,	 1532.900000,	 0.000000,	 1188.333000,	 15230.557603,	 661.513989,	 2.317260 
0.600000,	 0.014851,	 0.044550,	 1532.900000,	 0.000000,	 1188.333000,	 15230.557603,	 661.513989,	 2.317260 
0.630000,	 0.014851,	 0.044550,	 1532.900000,	 0.000000,	 1188.333000,	 15230.557603,	 661.513989,	 2.317260 
0.660000,	 0.014851,	 0.044550,	 1532.900000,	 0.000000,	 1188.333000,	 15230.557603,	 661.513989,	 2.317260 
0.690000,	 0.014851,	 0.044550,	 1532.900000,	 0.000000,	 1188.333000,	 15230.557603,	 661.513989,	 2.317260 
0.720000,	 0.014851,	 0.044550,	 1532.900000,	 0.000000,	 1188.333000,	 15230.557603,	 661.513989,	 2.317260 
0.750000,	 0.014851,	 0.044550,	 1532.900000,	 0.000000,	 1188.333000,	 15230.557603,	 661.513989,	 2.317260 
0.780000,	 0.014851,	 0.044550,	 1532.900000,	 0.000000,	 1188.333000,	 15230.557603,	 661.513989,	 2.317260 
0.810000,	 0.014851,	 0.044550,	 1532.900000,	 0.000000,	 1188.333000,	 15230.557603,	 661.513989,	 2.317260 
0.840000,	 0.014851,	 0.044550,	 1532.900000,	 -0.000000,	 1188.333000,	 15230.557603,	 661.513989,	 2.317260 
0.870000,	 0.014851,	 0.044550,	 1532.900000,	 0.000000,	 1188.333000,	 15230.557603,	 661.513989,	 2.317260 
0.900000,	 0.014851,	 0.044550,	 1532.900000,	 0.000000,	 1188.333000,	 15230.557603,	 661.513989,	 2.317260 
0.930000,	 0.014851,	 0.044550,	 1532.900000,	 0.000000,	 1188.333000,	 15230.557603,	 661.513989,	 2.317260 
0.960000,	 0.014851,	 0.044550,	 1532.900000,	 0.000000,	 1188.333000,	 15230.557603,	 661.513989,	 2.317260 
0.990000,	 0.014851,	 0.045312,	 1531.161406,	 -4.759960,	 1196.415372,	 15596.440354,	 663.759799,	 2.306812 
1.020000,	 0.019802,	 0.047792,	 1522.730756,	 19.014676,	 1213.813295,	 16689.423704,	 668.568481,	 2.277776 
1.050000,	 0.027228,	 0.053652,	 1483.893108,	 77.681459,	 1253.320915,	 19345.469754,	 679.361759,	 2.187237 
1.080000,	 0.034653,	 0.059725,	 1434.889363,	 170.875741,	 1295.570451,	 22261.239945,	 690.717518,	 2.092068 
1.110000,	 0.042079,	 0.062914,	 1410.287424,	 225.094847,	 1312.006430,	 23747.098657,	 695.085030,	 2.054624 
1.140000,	 0.049505,	 0.063262,	 1405.039667,	 246.777279,	 1312.716916,	 23891.641011,	 695.273208,	 2.051779 
1.170000,	 0.056931,	 0.063144,	 1402.478109,	 258.996910,	 1312.370314,	 23840.603394,	 695.181414,	 2.051540 
1.200000,	 0.064356,	 0.063158,	 1399.791440,	 269.243189,	 1312.701582,	 23851.815840,	 695.269147,	 2.050213 
1.230000,	 0.071782,	 0.063241,	 1397.424795,	 277.538420,	 1313.162681,	 23891.678039,	 695.391247,	 2.048802 
1.260000,	 0.079208,	 0.063304,	 1395.541918,	 284.413184,	 1313.440333,	 23920.501003,	 695.464758,	 2.047881 
1.290000,	 0.086634,	 0.063349,	 1393.994245,	 290.237098,	 1313.583887,	 23940.083875,	 695.502763,	 2.047279 
1.320000,	 0.094059,	 0.063394,	 1392.670424,	 295.018635,	 1313.678237,	 23958.939103,	 695.527741,	 2.046756 
1.350000,	 0.101485,	 0.063435,	 1391.544708,	 298.864263,	 1313.842786,	 23977.362475,	 695.571300,	 2.046198 
1.380000,	 0.108911,	 0.063475,	 1390.528136,	 302.194106,	 1313.996055,	 23995.228442,	 695.611870,	 2.045661 
1.410000,	 0.116337,	 0.063493,	 1389.657608,	 305.302953,	 1314.104238,	 24003.938472,	 695.640505,	 2.045308 
1.440000,	 0.123762,	 0.063506,	 1388.896819,	 308.045418,	 1314.154506,	 24009.980888,	 695.653810,	 2.045051 
1.470000,	 0.131188,	 0.063525,	 1388.221740,	 310.337073,	 1314.195473,	 24017.809098,	 695.664652,	 2.044788 
1.500000,	 0.138614,	 0.063541,	 1387.634825,	 312.278732,	 1314.267116,	 24025.336893,	 695.683614,	 2.044520 
1.530000,	 0.146040,	 0.063558,	 1387.081205,	 314.090095,	 1314.335336,	 24033.042651,	 695.701669,	 2.044264 
1.560000,	 0.153465,	 0.063568,	 1386.589377,	 315.824083,	 1314.383144,	 24037.414095,	 695.714322,	 2.044089 
1.590000,	 0.160891,	 0.063572,	 1386.173969,	 317.382750,	 1314.388949,	 24039.204713,	 695.715859,	 2.044002 
1.620000,	 0.168317,	 0.063578,	 1385.796739,	 318.771002,	 1314.378418,	 24041.432713,	 695.713072,	 2.043928 
1.650000,	 0.175743,	 0.063586,	 1385.454238,	 319.983809,	 1314.372351,	 24044.357808,	 695.711466,	 2.043844 
1.680000,	 0.183168,	 0.063598,	 1385.118045,	 321.057914,	 1314.422393,	 24049.705702,	 695.724710,	 2.043683 
1.710000,	 0.190594,	 0.063610,	 1384.788927,	 322.116653,	 1314.459251,	 24054.946388,	 695.734464,	 2.043537 
1.740000,	 0.198020,	 0.063614,	 1384.500962,	 323.167154,	 1314.469877,	 24056.715311,	 695.737276,	 2.043469 
1.770000,	 0.205446,	 0.063612,	 1384.266691,	 324.127469,	 1314.444893,	 24055.481422,	 695.730664,	 2.043474 
1.800000,	 0.212871,	 0.063613,	 1384.057836,	 324.954789,	 1314.392408,	 24054.645920,	 695.716774,	 2.043494 
1.830000,	 0.220297,	 0.063619,	 1383.848044,	 325.688379,	 1314.325236,	 24055.828853,	 695.698997,	 2.043494 
1.860000,	 0.227723,	 0.063630,	 1383.614833,	 326.376786,	 1314.323833,	 24059.890165,	 695.698625,	 2.043396 
1.890000,	 0.235149,	 0.063641,	 1383.379690,	 327.060242,	 1314.326784,	 24064.065642,	 695.699406,	 2.043291 
1.920000,	 0.242574,	 0.063645,	 1383.178688,	 327.740559,	 1314.296610,	 24065.191752,	 695.691420,	 2.043258 
1.950000,	 0.250000,	 0.063647,	 1382.990383,	 328.404462,	 1314.283350,	 24065.577807,	 695.687911,	 2.043225 
1.980000,	 0.257426,	 0.063573,	 1383.090236,	 331.469700,	 1314.562653,	 24042.784171,	 695.761828,	 2.044170 
2.010000,	 0.262376,	 0.055384,	 1442.935065,	 271.094830,	 1268.338980,	 20209.129507,	 683.419905,	 2.148285 
2.040000,	 0.262376,	 0.040250,	 1557.601137,	 75.527667,	 1155.753828,	 13383.288903,	 652.382982,	 2.390362 
2.070000,	 0.262376,	 0.034705,	 1594.327857,	 -13.039732,	 1115.994721,	 11142.411534,	 641.063461,	 2.487088 
2.100000,	 0.262376,	 0.034650,	 1592.315477,	 -17.053380,	 1120.709196,	 11171.768879,	 642.416107,	 2.478778 
2.130000,	 0.262376,	 0.035392,	 1587.011274,	 -7.292222,	 1127.712805,	 11482.394884,	 644.420295,	 2.462722 
2.160000,	 0.262376,	 0.036021,	 1582.713534,	 -3.443429,	 1132.374774,	 11734.807364,	 645.750939,	 2.450972 
2.190000,	 0.262376,	 0.036301,	 1580.886692,	 -4.018326,	 1134.431999,	 11847.484389,	 646.337252,	 2.445924 
2.220000,	 0.262376,	 0.036577,	 1579.065951,	 -4.270991,	 1136.626329,	 11960.542062,	 646.962055,	 2.440749 
2.250000,	 0.262376,	 0.036863,	 1577.166504,	 -4.058108,	 1138.913965,	 12078.316973,	 647.612783,	 2.435362 
2.280000,	 0.262376,	 0.037141,	 1575.319324,	 -3.741428,	 1141.136952,	 12193.212549,	 648.244496,	 2.430138 
2.310000,	 0.262376,	 0.037404,	 1573.578588,	 -3.550739,	 1143.229802,	 12302.130857,	 648.838665,	 2.425229 
2.340000,	 0.262376,	 0.037657,	 1571.909858,	 -3.434123,	 1145.233816,	 12407.148159,	 649.407104,	 2.420537 
2.370000,	 0.262376,	 0.037903,	 1570.298713,	 -3.311552,	 1147.166427,	 12509.076776,	 649.954819,	 2.416017 
2.400000,	 0.262376,	 0.038141,	 1568.739917,	 -3.174619,	 1149.034057,	 12608.155390,	 650.483679,	 2.411656 
2.430000,	 0.262376,	 0.038371,	 1567.238814,	 -3.034811,	 1150.830511,	 12703.999644,	 650.991979,	 2.407467 
2.460000,	 0.262376,	 0.038591,	 1565.805384,	 -2.876426,	 1152.544150,	 12795.927382,	 651.476477,	 2.403476 
2.490000,	 0.262376,	 0.038800,	 1564.447913,	 -2.696839,	 1154.165335,	 12883.341397,	 651.934504,	 2.399705 
2.520000,	 0.262376,	 0.038997,	 1563.169879,	 -2.518317,	 1155.690169,	 12965.961121,	 652.365016,	 2.396161 
2.550000,	 0.262376,	 0.039184,	 1561.965864,	 -2.365953,	 1157.125359,	 13044.091794,	 652.769958,	 2.392830 
2.580000,	 0.262376,	 0.039361,	 1560.824949,	 -2.244599,	 1158.484139,	 13118.400861,	 653.153111,	 2.389679 
2.610000,	 0.262376,	 0.039529,	 1559.738933,	 -2.136667,	 1159.776472,	 13189.379508,	 653.517318,	 2.386686 
2.640000,	 0.262376,	 0.039690,	 1558.707105,	 -2.020853,	 1161.003375,	 13257.031865,	 653.862897,	 2.383846 
2.670000,	 0.262376,	 0.039843,	 1557.715346,	 -1.899295,	 1162.164463,	 13321.289698,	 654.189771,	 2.381139 
2.700000,	 0.262376,	 0.039988,	 1556.757319,	 -1.799150,	 1163.265018,	 13382.416500,	 654.499452,	 2.378548 
2.730000,	 0.262376,	 0.040127,	 1555.838094,	 -1.731212,	 1164.317053,	 13441.066797,	 654.795344,	 2.376069 
2.760000,	 0.262376,	 0.040262,	 1554.946453,	 -1.690637,	 1165.338183,	 13498.194241,	 655.082416,	 2.373667 
2.790000,	 0.262376,	 0.040395,	 1554.075153,	 -1.661433,	 1166.339067,	 13554.370235,	 655.363673,	 2.371319 
2.820000,	 0.262376,	 0.040524,	 1553.229667,	 -1.609306,	 1167.313446,	 13609.222028,	 655.637367,	 2.369039 
2.850000,	 0.262376,	 0.040649,	 1552.419389,	 -1.519935,	 1168.246524,	 13661.887138,	 655.899353,	 2.366857 
2.880000,	 0.262376,	 0.040766,	 1551.650215,	 -1.418687,	 1169.128087,	 13711.769344,	 656.146778,	 2.364792 
2.910000,	 0.262376,	 0.040877,	 1550.922352,	 -1.335576,	 1169.958897,	 13758.905969,	 656.379873,	 2.362844 
2.940000,	 0.262376,	 0.040983,	 1550.231450,	 -1.274648,	 1170.747184,	 13803.754164,	 656.600962,	 2.360996 
2.970000,	 0.262376,	 0.041084,	 1549.572336,	 -1.221732,	 1171.500291,	 13846.711878,	 656.812114,	 2.359233 
3.000000,	 0.262376,	 0.041181,	 1548.898945,	 -1.166904,	 1172.255530,	 13888.141749,	 657.023795,	 2.357448 
0.000000,	 0.029703,	 0.044550,	 1532.900000,	 -0.000000,	 1188.333000,	 15230.557603,	 661.513989,	 2.317260 
0.030000,	 0.029703,	 0.044550,	 1532.900000,	 0.000000,	 1188.333000,	 15230.557603,	 661.513989,	 2.317260 
0.060000,	 0.029703,	 0.044550,	 1532.900000,	 0.000000,	 1188.333000,	 15230.557603,	 661.513989,	 2.317260 
0.090000,	 0.029703,	 0.044550,	 1532.900000,	 0.000000,	 1188.333000,	 15230.557603,	 661.513989,	 2.317260 
0.120000,	 0.029703,	 0.044550,	 1532.900000,	 0.000000,	 1188.333000,	 15230.557603,	 661.513989,	 2.317260 
0.150000,	 0.029703,	 0.044550,	 1532.900000,	 0.000000,	 1188.333000,	 15230.557603,	 661.513989,	 2.317260 
0.180000,	 0.029703,	 0.044550,	 1532.900000,	 0.000000,	 1188.333000,	 15230.557603,	 661.513989,	 2.317260 
0.210000,	 0.029703,	 0.044550,	 1532.900000,	 0.000000,	 1188.333000,	 15230.557603,	 661.513989,	 2.317260 
0.240000,	 0.029703,	 0.044550,	 1532.900000,	 0.000000,	 1188.333000,	 15230.557603,	 661.513989,	 2.317260 
0.270000,	 0.029703,	 0.044550,	 1532.900000,	 -0.000000,	 1188.333000,	 15230.557603,	 661.513989,	 2.317260 
0.300000,	 0.029703,	 0.044550,	 1532.900000,	 -0.000000,	 1188.333000,	 15230.557603,	 661.513989,	 2.317260 
0.330000,	 0.029703,	 0.044550,	 1532.900000,	 0.000000,	 1188.333000,	 15230.557603,	 661.513989,	 2.317260 
0.360000,	 0.029703,	 0.044550,	 1532.900000,	 0.000000,	 1188.333000,	 15230.557603,	 661.513989,	 2.317260 
0.390000,	 0.029703,	 0.044550,	 1532.900000,	 0.000000,	 1188.333000,	 15230.557603,	 661.513989,	 2.317260 
0.420000,	 0.029703,	 0.044550,	 1532.900000,	 0.000000,	 1188.333000,	 15230.557603,	 661.513989,	 2.317260 
0.450000,	 0.029703,	 0.044550,	 1532.900000,	 0.000000,	 1188.333000,	 15230.557603,	 661.513989,	 2.317260 
0.480000,	 0.029703,	 0.044550,	 1532.900000,	 0.000000,	 1188.333000,	 15230.557603,	 661.513989,	 2.317260 
0.510000,	 0.029703,	 0.044550,	 1532.900000,	 0.000000,	 1188.333000,	 15230.557603,	 661.513989,	 2.317260 
0.540000,	 0.029703,	 0.044550,	 1532.900000,	 0.000000,	 1188.333000,	 15230.557603,	 661.513989,	 2.317260 
0.570000,	 0.029703,	 0.044550,	 1532.900000,	 0.000000,	 1188.333000,	 15230.557603,	 661.513989,	 2.317260 
0.600000,	 0.029703,	 0.044550,	 1532.900000,	 0.000000,	 1188.333000,	 15230.557603,	 661.513989,	 2.317260 
0.630000,	 0.029703,	 0.044550,	 1532.900000,	 -0.000000,	 1188.333000,	 15230.557603,	 661.513989,	 2.317260 
0.660000,	 0.029703,	 0.044550,	 1532.900000,	 0.000000,	 1188.333000,	 15230.557603,	 661.513989,	 2.317260 
0.690000,	 0.029703,	 0.044550,	 1532.900000,	 0.000000,	 1188.333000,	 15230.557603,	 661.513989,	 2.317260 
0.720000,	 0.029703,	 0.044550,	 1532.900000,	 0.000000,	 1188.333000,	 15230.557603,	 661.513989,	 2.317260 
0.750000,	 0.029703,	 0.044550,	 1532.900000,	 0.000000,	 1188.333000,	 15230.557603,	 661.513989,	 2.317260 
0.780000,	 0.029703,	 0.044550,	 1532.900000,	 0.000000,	 1188.333000,	 15230.557603,	 661.513989,	 2.317260 
0.810000,	 0.029703,	 0.044550,	 1532.900000,	 -0.000000,	 1188.333000,	 15230.557603,	 661.513989,	 2.317260 
0.840000,	 0.029703,	 0.044550,	 1532.900000,	 -0.000000,	 1188.333000,	 15230.557603,	 661.513989,	 2.317260 
0.870000,	 0.029703,	 0.044550,	 1532.900000,	 0.000000,	 1188.333000,	 15230.557603,	 661.513989,	 2.317260 
0.900000,	 0.029703,	 0.044550,	 1532.900000,	 0.000000,	 1188.333000,	 15230.557603,	 661.513989,	 2.317260 
0.930000,	 0.029703,	 0.044550,	 1532.900000,	 0.000000,	 1188.333000,	 15230.557603,	 661.513989,	 2.317260 
0.960000,	 0.029703,	 0.044550,	 1532.900000,	 0.000000,	 1188.333000,	 15230.557603,	 661.513989,	 2.317260 
0.990000,	 0.029703,	 0.044423,	 1534.172661,	 -3.618868,	 1186.776180,	 15167.094293,	 661.080526,	 2.320711 
1.020000,	 0.034604,	 0.044559,	 1534.044906,	 -3.531042,	 1186.899659,	 15215.096115,	 661.114917,	 2.320397 
1.050000,	 0.041955,	 0.044547,	 1535.481622,	 -4.628853,	 1186.870450,	 15210.712241,	 661.106782,	 2.322603 
1.080000,	 0.049307,	 0.047787,	 1513.681850,	 36.950648,	 1211.744152,	 16659.082644,	 667.998396,	 2.266671 
1.110000,	 0.056658,	 0.054448,	 1465.042404,	 121.155153,	 1260.671619,	 19747.708053,	 681.351069,	 2.157542 
1.140000,	 0.064010,	 0.059826,	 1428.814685,	 184.928923,	 1292.882419,	 22252.423067,	 690.000600,	 2.088016 
1.170000,	 0.071361,	 0.061550,	 1418.108286,	 211.008010,	 1300.275834,	 23024.531064,	 691.970690,	 2.071939 
1.200000,	 0.078713,	 0.061769,	 1414.896590,	 222.875977,	 1301.725348,	 23132.447658,	 692.356278,	 2.068794 
1.230000,	 0.086064,	 0.061964,	 1411.388801,	 233.014783,	 1303.717393,	 23240.762771,	 692.885836,	 2.064546 
1.260000,	 0.093416,	 0.062202,	 1408.026625,	 242.766936,	 1305.546270,	 23362.978242,	 693.371661,	 2.060658 
1.290000,	 0.100767,	 0.062424,	 1405.135494,	 251.149541,	 1307.060342,	 23473.343205,	 693.773604,	 2.057449 
1.320000,	 0.108119,	 0.062618,	 1402.693374,	 258.171004,	 1308.304102,	 23568.835557,	 694.103613,	 2.054815 
1.350000,	 0.115470,	 0.062779,	 1400.665556,	 264.171670,	 1309.270169,	 23647.035225,	 694.359833,	 2.052768 
1.380000,	 0.122822,	 0.062892,	 1399.045431,	 269.570495,	 1309.896683,	 23700.706222,	 694.525946,	 2.051442 
1.410000,	 0.130173,	 0.062980,	 1397.658109,	 274.476692,	 1310.354855,	 23742.272262,	 694.647400,	 2.050471 
1.440000,	 0.137525,	 0.063066,	 1396.398952,	 278.738870,	 1310.794562,	 23782.531853,	 694.763939,	 2.049541 
1.470000,	 0.144876,	 0.063147,	 1395.254984,	 282.428223,	 1311.220745,	 23820.825872,	 694.876876,	 2.048640 
1.500000,	 0.152228,	 0.063209,	 1394.258175,	 285.756675,	 1311.558658,	 23850.456889,	 694.966408,	 2.047927 
1.530000,	 0.159579,	 0.063253,	 1393.384822,	 288.840476,	 1311.810906,	 23871.534785,	 695.033235,	 2.047395 
1.560000,	 0.166931,	 0.063292,	 1392.556747,	 291.703369,	 1312.056596,	 23890.675860,	 695.098319,	 2.046877 
1.590000,	 0.174282,	 0.063326,	 1391.787225,	 294.306164,	 1312.292152,	 23907.881716,	 695.160712,	 2.046381 
1.620000,	 0.181634,	 0.063357,	 1391.080926,	 296.620408,	 1312.520671,	 23923.774723,	 695.221236,	 2.045901 
1.650000,	 0.188985,	 0.063388,	 1390.416878,	 298.687906,	 1312.756242,	 23939.972998,	 695.283622,	 2.045406 
1.680000,	 0.196337,	 0.063414,	 1389.816028,	 300.606699,	 1312.955614,	 23953.168249,	 695.336418,	 2.044987 
1.710000,	 0.203688,	 0.063431,	 1389.266658,	 302.481310,	 1313.107689,	 23962.564150,	 695.376686,	 2.044668 
1.740000,	 0.211040,	 0.063446,	 1388.748830,	 304.282737,	 1313.240414,	 23970.663202,	 695.411828,	 2.044390 
1.770000,	 0.218391,	 0.063461,	 1388.271565,	 305.915729,	 1313.366727,	 23978.733039,	 695.445271,	 2.044126 
1.800000,	 0.225743,	 0.063476,	 1387.846915,	 307.358491,	 1313.479793,	 23986.260143,	 695.475206,	 2.043889 
1.830000,	 0.233094,	 0.063490,	 1387.459993,	 308.672535,	 1313.581536,	 23993.342926,	 695.502141,	 2.043676 
1.860000,	 0.240446,	 0.063503,	 1387.092549,	 309.928100,	 1313.675013,	 24000.228300,	 695.526887,	 2.043480 
1.890000,	 0.247797,	 0.063516,	 1386.737306,	 311.176908,	 1313.755793,	 24006.575341,	 695.548271,	 2.043312 
1.920000,	 0.255149,	 0.063525,	 1386.415221,	 312.409252,	 1313.797978,	 24010.695841,	 695.559438,	 2.043216 
1.950000,	 0.262500,	 0.063531,	 1386.121432,	 313.578662,	 1313.837491,	 24013.749491,	 695.569898,	 2.043143 
1.980000,	 0.269851,	 0.064124,	 1381.489052,	 320.782283,	 1317.109828,	 24298.239458,	 696.435577,	 2.036431 