TITLE = "Final State"
VARIABLES = "X", "Y", "rho", "u", "v", "T", "p", "c", "M"
ZONE I=200, J=100, DATAPACKING=POINT
0.040750,	 0.006463,	 0.044078,	 1532.896985,	 0.579429,	 1184.328544,	 15018.581098,	 660.398460,	 2.321170 
0.122250,	 0.006499,	 0.043591,	 1536.139137,	 0.556693,	 1180.082738,	 14799.333540,	 659.213636,	 2.330260 
0.203750,	 0.006548,	 0.043367,	 1537.649076,	 0.291047,	 1178.105311,	 14698.467214,	 658.661093,	 2.334507 
0.285250,	 0.006601,	 0.043318,	 1537.987399,	 0.081405,	 1177.666295,	 14676.422996,	 658.538358,	 2.335456 
0.366750,	 0.006656,	 0.043340,	 1537.850166,	 -0.015281,	 1177.851014,	 14686.179468,	 658.590002,	 2.335065 
0.448250,	 0.006713,	 0.043375,	 1537.623038,	 -0.039747,	 1178.151861,	 14701.914157,	 658.674106,	 2.334422 
0.529750,	 0.006772,	 0.043404,	 1537.441662,	 -0.035053,	 1178.390415,	 14714.546897,	 658.740787,	 2.333910 
0.611250,	 0.006832,	 0.043422,	 1537.325591,	 -0.024049,	 1178.541326,	 14722.768112,	 658.782966,	 2.333584 
0.692750,	 0.006895,	 0.043434,	 1537.259726,	 -0.014696,	 1178.624238,	 14727.585288,	 658.806139,	 2.333402 
0.774250,	 0.006959,	 0.043440,	 1537.228022,	 -0.008084,	 1178.660720,	 14730.084447,	 658.816335,	 2.333318 
0.855750,	 0.007024,	 0.043442,	 1537.222797,	 -0.002988,	 1178.661002,	 14730.786541,	 658.816414,	 2.333310 
0.937250,	 0.007090,	 0.043439,	 1537.246843,	 0.002447,	 1178.621315,	 14729.506801,	 658.805322,	 2.333386 
1.018750,	 0.007158,	 0.043431,	 1537.314692,	 0.010389,	 1178.522636,	 14725.276850,	 658.777743,	 2.333586 
1.100250,	 0.007226,	 0.043411,	 1537.454584,	 0.023438,	 1178.328176,	 14716.215488,	 658.723390,	 2.333991 
1.181750,	 0.007295,	 0.043374,	 1537.710811,	 0.044758,	 1177.979903,	 14699.369129,	 658.626035,	 2.334725 
1.263250,	 0.007366,	 0.043311,	 1538.145467,	 0.078015,	 1177.396453,	 14670.607010,	 658.462907,	 2.335964 
1.344750,	 0.007437,	 0.043209,	 1538.837936,	 0.127035,	 1176.474086,	 14624.679619,	 658.204938,	 2.337931 
1.426250,	 0.007509,	 0.043055,	 1539.881549,	 0.195385,	 1175.090118,	 14555.462843,	 657.817678,	 2.340894 
1.507750,	 0.007582,	 0.042834,	 1541.376946,	 0.285746,	 1173.111823,	 14456.462366,	 657.263718,	 2.345142 
1.589250,	 0.007655,	 0.042533,	 1543.423010,	 0.399428,	 1170.407692,	 14321.485383,	 656.505755,	 2.350967 
1.670750,	 0.007729,	 0.042137,	 1546.107522,	 0.536209,	 1166.858736,	 14145.330303,	 655.509658,	 2.358634 
1.752250,	 0.007804,	 0.041639,	 1549.497472,	 0.694075,	 1162.371587,	 13924.511764,	 654.248064,	 2.368364 
1.833750,	 0.007878,	 0.041035,	 1553.633404,	 0.869728,	 1156.884923,	 13657.647887,	 652.702136,	 2.380310 
1.915250,	 0.007954,	 0.040324,	 1558.527406,	 1.059152,	 1150.372075,	 13345.564890,	 650.862304,	 2.394558 
1.996750,	 0.008030,	 0.039513,	 1564.161759,	 1.257545,	 1142.844311,	 12991.331821,	 648.729263,	 2.411117 
2.078250,	 0.008106,	 0.038609,	 1570.495333,	 1.460534,	 1134.342353,	 12599.688504,	 646.311714,	 2.429936 
2.159750,	 0.008183,	 0.037625,	 1577.467861,	 1.663985,	 1124.932622,	 12176.647643,	 643.625451,	 2.450911 
2.241250,	 0.008260,	 0.036574,	 1585.006330,	 1.864271,	 1114.699223,	 11728.908656,	 640.691265,	 2.473902 
2.322750,	 0.008337,	 0.035471,	 1593.030346,	 2.058420,	 1103.737582,	 11263.376776,	 637.533292,	 2.498743 
2.404250,	 0.008415,	 0.034331,	 1601.454129,	 2.243702,	 1092.152760,	 10786.956604,	 634.178694,	 2.525244 
2.485750,	 0.008493,	 0.033168,	 1610.193721,	 2.418297,	 1080.049663,	 10306.005675,	 630.654961,	 2.553212 
2.567250,	 0.008571,	 0.031994,	 1619.169800,	 2.581118,	 1067.529443,	 9826.145921,	 626.988947,	 2.582457 
2.648750,	 0.008649,	 0.030822,	 1628.308904,	 2.731534,	 1054.687884,	 9352.207559,	 623.206439,	 2.612796 
2.730250,	 0.008727,	 0.029660,	 1637.544837,	 2.869293,	 1041.613275,	 8888.178332,	 619.331553,	 2.644056 
2.811750,	 0.008806,	 0.028518,	 1646.819265,	 2.994448,	 1028.385325,	 8437.222009,	 615.386393,	 2.676078 
2.893250,	 0.008885,	 0.027400,	 1656.081681,	 3.107255,	 1015.074884,	 8001.742996,	 611.390934,	 2.708716 
2.974750,	 0.008963,	 0.026314,	 1665.289501,	 3.208237,	 1001.743404,	 7583.445384,	 607.362815,	 2.741842 
3.056250,	 0.009042,	 0.025261,	 1674.406906,	 3.298035,	 988.444680,	 7183.465370,	 603.317798,	 2.775337 
3.137750,	 0.009121,	 0.024246,	 1683.404196,	 3.377283,	 975.224634,	 6802.467441,	 599.269652,	 2.809099 
3.219250,	 0.009200,	 0.023269,	 1692.257795,	 3.446641,	 962.120307,	 6440.692904,	 595.229770,	 2.843039 
3.300750,	 0.009278,	 0.022332,	 1700.948862,	 3.506762,	 949.162756,	 6098.074922,	 591.207994,	 2.877080 
3.382250,	 0.009357,	 0.021435,	 1709.462526,	 3.558263,	 936.377985,	 5774.313792,	 587.212850,	 2.911153 
3.463750,	 0.009436,	 0.020578,	 1717.787084,	 3.601636,	 923.787942,	 5468.945078,	 583.251814,	 2.945196 
3.545250,	 0.009514,	 0.019760,	 1725.914649,	 3.637581,	 911.409277,	 5181.329846,	 579.330877,	 2.979158 
3.626750,	 0.009592,	 0.018982,	 1733.839430,	 3.666695,	 899.255827,	 4910.757840,	 575.455286,	 3.012994 
3.708250,	 0.009671,	 0.018241,	 1741.557191,	 3.689355,	 887.339358,	 4656.484268,	 571.629754,	 3.046659 
3.789750,	 0.009749,	 0.017536,	 1749.065921,	 3.706004,	 875.668344,	 4417.706806,	 567.858039,	 3.080118 
3.871250,	 0.009827,	 0.016866,	 1756.365263,	 3.717143,	 864.248736,	 4193.599074,	 564.143164,	 3.113339 
3.952750,	 0.009905,	 0.016230,	 1763.455745,	 3.723174,	 853.085123,	 3983.348893,	 560.487766,	 3.146295 
4.034250,	 0.009983,	 0.015627,	 1770.338643,	 3.724382,	 842.180887,	 3786.165287,	 556.894135,	 3.178957 
4.115750,	 0.010060,	 0.015054,	 1777.016330,	 3.721132,	 831.537548,	 3601.264310,	 553.363980,	 3.211304 
4.197250,	 0.010137,	 0.014510,	 1783.491219,	 3.713555,	 821.156486,	 3427.911966,	 549.898984,	 3.243314 
4.278750,	 0.010214,	 0.013995,	 1789.767013,	 3.702048,	 811.036786,	 3265.373198,	 546.500080,	 3.274969 
4.360250,	 0.010291,	 0.013506,	 1795.847165,	 3.686817,	 801.177789,	 3112.970308,	 543.168285,	 3.306251 
4.441750,	 0.010367,	 0.013042,	 1801.735505,	 3.668077,	 791.578030,	 2970.056642,	 539.904341,	 3.337145 
4.523250,	 0.010444,	 0.012602,	 1807.435963,	 3.645991,	 782.235683,	 2836.024404,	 536.708861,	 3.367635 
4.604750,	 0.010520,	 0.012185,	 1812.952570,	 3.620721,	 773.148524,	 2710.301954,	 533.582305,	 3.397707 
4.686250,	 0.010595,	 0.011789,	 1818.289510,	 3.592450,	 764.313833,	 2592.349123,	 530.524951,	 3.427347 
4.767750,	 0.010671,	 0.011414,	 1823.450836,	 3.561212,	 755.728962,	 2481.665248,	 527.537075,	 3.456542 
4.849250,	 0.010745,	 0.011058,	 1828.440780,	 3.527152,	 747.390724,	 2377.775549,	 524.618746,	 3.485282 
4.930750,	 0.010820,	 0.010721,	 1833.263180,	 3.490266,	 739.296428,	 2280.247687,	 521.770183,	 3.513552 
5.012250,	 0.010894,	 0.010401,	 1837.922200,	 3.450726,	 731.442578,	 2188.665940,	 518.991294,	 3.541342 
5.093750,	 0.010968,	 0.010097,	 1842.421424,	 3.408476,	 723.826526,	 2102.657914,	 516.282258,	 3.568638 
5.175250,	 0.011041,	 0.009809,	 1846.764794,	 3.363671,	 716.444759,	 2021.863024,	 513.642923,	 3.595431 
5.256750,	 0.011114,	 0.009536,	 1850.955631,	 3.316219,	 709.294714,	 1945.960647,	 511.073444,	 3.621708 
5.338250,	 0.011186,	 0.009277,	 1854.997631,	 3.266270,	 702.372933,	 1874.638283,	 508.573629,	 3.647457 
5.419750,	 0.011258,	 0.009032,	 1858.893958,	 3.213791,	 695.676756,	 1807.616535,	 506.143542,	 3.672667 
5.501250,	 0.011330,	 0.008799,	 1862.647843,	 3.158846,	 689.203218,	 1744.630383,	 503.783109,	 3.697326 
5.582750,	 0.011401,	 0.008578,	 1866.262223,	 3.101416,	 682.949732,	 1685.437925,	 501.492362,	 3.721422 
5.664250,	 0.011472,	 0.008369,	 1869.739977,	 3.041519,	 676.913649,	 1629.812515,	 499.271285,	 3.744943 
5.745750,	 0.011542,	 0.008171,	 1873.083813,	 2.979153,	 671.092489,	 1577.544731,	 497.119893,	 3.767876 
5.827250,	 0.011611,	 0.007983,	 1876.296269,	 2.914283,	 665.483945,	 1528.441321,	 495.038236,	 3.790209 
5.908750,	 0.011680,	 0.007806,	 1879.379864,	 2.846946,	 660.085594,	 1482.320104,	 493.026293,	 3.811931 
5.990250,	 0.011748,	 0.007638,	 1882.336975,	 2.777187,	 654.895135,	 1439.012212,	 491.084058,	 3.833028 
6.071750,	 0.011816,	 0.007479,	 1885.169835,	 2.705060,	 649.910401,	 1398.361361,	 489.211545,	 3.853490 
6.153250,	 0.011884,	 0.007329,	 1887.880465,	 2.630534,	 645.129533,	 1360.225360,	 487.408855,	 3.873303 
6.234750,	 0.011951,	 0.007187,	 1890.470950,	 2.553704,	 640.550398,	 1324.468019,	 485.675959,	 3.892457 
6.316250,	 0.012017,	 0.007054,	 1892.943097,	 2.474512,	 636.171338,	 1290.967914,	 484.012974,	 3.910938 
6.397750,	 0.012082,	 0.006928,	 1895.298905,	 2.393121,	 631.990145,	 1259.605324,	 482.419781,	 3.928737 
6.479250,	 0.012147,	 0.006809,	 1897.540080,	 2.309518,	 628.005149,	 1230.274726,	 480.896433,	 3.945842 
6.560750,	 0.012211,	 0.006698,	 1899.668500,	 2.223903,	 624.214164,	 1202.872073,	 479.442758,	 3.962245 
6.642250,	 0.012274,	 0.006594,	 1901.685819,	 2.136315,	 620.615431,	 1177.305270,	 478.058713,	 3.977936 
6.723750,	 0.012337,	 0.006496,	 1903.593835,	 2.046979,	 617.206731,	 1153.483895,	 476.744049,	 3.992908 
6.805250,	 0.012400,	 0.006405,	 1905.394168,	 1.955895,	 613.986275,	 1131.328890,	 475.498646,	 4.007152 
6.886750,	 0.012461,	 0.006320,	 1907.088716,	 1.863408,	 610.951442,	 1110.758548,	 474.322035,	 4.020664 
6.968250,	 0.012521,	 0.006240,	 1908.679234,	 1.769650,	 608.099971,	 1091.701019,	 473.213848,	 4.033441 
7.049750,	 0.012582,	 0.006167,	 1910.167628,	 1.674940,	 605.429103,	 1074.085226,	 472.173490,	 4.045480 
7.131250,	 0.012641,	 0.006098,	 1911.555797,	 1.579373,	 602.936288,	 1057.848001,	 471.200416,	 4.056780 
7.212750,	 0.012699,	 0.006036,	 1912.845871,	 1.483410,	 600.618112,	 1042.923280,	 470.293705,	 4.067344 
7.294250,	 0.012757,	 0.005978,	 1914.040014,	 1.387229,	 598.471374,	 1029.252397,	 469.452487,	 4.077176 
7.375750,	 0.012814,	 0.005925,	 1915.140580,	 1.291325,	 596.492094,	 1016.774747,	 468.675552,	 4.086283 
7.457250,	 0.012870,	 0.005877,	 1916.150056,	 1.195936,	 594.676330,	 1005.434939,	 467.961667,	 4.094674 
7.538750,	 0.012925,	 0.005833,	 1917.071069,	 1.101558,	 593.019450,	 995.176369,	 467.309298,	 4.102361 
7.620250,	 0.012979,	 0.005794,	 1917.906449,	 1.008376,	 591.516878,	 985.946953,	 466.716897,	 4.109358 
7.701750,	 0.013033,	 0.005758,	 1918.659082,	 0.916895,	 590.163339,	 977.693034,	 466.182608,	 4.115682 
7.783250,	 0.013086,	 0.005727,	 1919.332092,	 0.827377,	 588.953488,	 970.363943,	 465.704520,	 4.121352 
7.864750,	 0.013137,	 0.005699,	 1919.928668,	 0.740238,	 587.881500,	 963.908773,	 465.280499,	 4.126390 
7.946250,	 0.013188,	 0.005675,	 1920.452265,	 0.655760,	 586.941363,	 958.278148,	 464.908313,	 4.130820 
8.027750,	 0.013238,	 0.005654,	 1920.906421,	 0.574313,	 586.126665,	 953.422619,	 464.585545,	 4.134667 
8.109250,	 0.013288,	 0.005636,	 1921.294864,	 0.496211,	 585.430744,	 949.293349,	 464.309657,	 4.137960 
8.190750,	 0.013336,	 0.005621,	 1921.621479,	 0.421745,	 584.846688,	 945.841884,	 464.077989,	 4.140730 
8.272250,	 0.013384,	 0.005609,	 1921.890189,	 0.351212,	 584.367334,	 943.019980,	 463.887766,	 4.143007 
8.353750,	 0.013430,	 0.005600,	 1922.105225,	 0.284806,	 583.985451,	 940.780165,	 463.736166,	 4.144825 
8.435250,	 0.013475,	 0.005592,	 1922.270395,	 0.222808,	 583.693508,	 939.075013,	 463.620237,	 4.146218 
8.516750,	 0.013519,	 0.005587,	 1922.390068,	 0.165303,	 583.484145,	 937.858406,	 463.537083,	 4.147220 
8.598250,	 0.013562,	 0.005584,	 1922.468006,	 0.112436,	 583.349833,	 937.084946,	 463.483729,	 4.147865 
8.679750,	 0.013605,	 0.005582,	 1922.508481,	 0.064219,	 583.283297,	 936.710497,	 463.457296,	 4.148189 
8.761250,	 0.013647,	 0.005582,	 1922.515221,	 0.020662,	 583.277276,	 936.692320,	 463.454904,	 4.148225 
8.842750,	 0.013688,	 0.005583,	 1922.492455,	 -0.018285,	 583.324841,	 936.988844,	 463.473801,	 4.148007 
8.924250,	 0.013728,	 0.005586,	 1922.443630,	 -0.052712,	 583.419161,	 937.560568,	 463.511269,	 4.147566 
9.005750,	 0.013767,	 0.005589,	 1922.372478,	 -0.082744,	 583.553794,	 938.369532,	 463.564748,	 4.146934 
9.087250,	 0.013805,	 0.005594,	 1922.282308,	 -0.108553,	 583.722582,	 939.380004,	 463.631784,	 4.146140 
9.168750,	 0.013843,	 0.005599,	 1922.176070,	 -0.130358,	 583.919710,	 940.558644,	 463.710063,	 4.145211 
9.250250,	 0.013881,	 0.005605,	 1922.056711,	 -0.148387,	 584.139789,	 941.874140,	 463.797441,	 4.144173 
9.331750,	 0.013918,	 0.005611,	 1921.927086,	 -0.162871,	 584.377853,	 943.297277,	 463.891941,	 4.143049 
9.413250,	 0.013953,	 0.005617,	 1921.790667,	 -0.173968,	 584.629487,	 944.799966,	 463.991807,	 4.141863 
9.494750,	 0.013986,	 0.005624,	 1921.648678,	 -0.182079,	 584.890342,	 946.359221,	 464.095309,	 4.140634 
9.576250,	 0.014019,	 0.005631,	 1921.503069,	 -0.187473,	 585.156663,	 947.953210,	 464.200956,	 4.139378 
9.657750,	 0.014052,	 0.005638,	 1921.355731,	 -0.190402,	 585.425120,	 949.562102,	 464.307427,	 4.138111 
9.739250,	 0.014086,	 0.005645,	 1921.208345,	 -0.191115,	 585.692763,	 951.168221,	 464.413550,	 4.136848 
9.820750,	 0.014119,	 0.005652,	 1921.062309,	 -0.189868,	 585.956989,	 952.756070,	 464.518295,	 4.135601 
9.902250,	 0.014151,	 0.005659,	 1920.918868,	 -0.186896,	 586.215552,	 954.312084,	 464.620771,	 4.134380 
9.983750,	 0.014183,	 0.005665,	 1920.779294,	 -0.182407,	 586.466575,	 955.824304,	 464.720238,	 4.133195 
10.065250,	 0.014215,	 0.005671,	 1920.644159,	 -0.176644,	 586.708351,	 957.283150,	 464.816021,	 4.132052 
10.146750,	 0.014244,	 0.005677,	 1920.515339,	 -0.169704,	 586.939819,	 958.678932,	 464.907701,	 4.130960 
10.228250,	 0.014270,	 0.005683,	 1920.392392,	 -0.161879,	 587.159604,	 960.005952,	 464.994738,	 4.129923 
10.309750,	 0.014296,	 0.005689,	 1920.275577,	 -0.153328,	 587.366747,	 961.258784,	 465.076753,	 4.128943 
10.391250,	 0.014323,	 0.005694,	 1920.165269,	 -0.144178,	 587.560530,	 962.432847,	 465.153465,	 4.128025 
10.472750,	 0.014349,	 0.005698,	 1920.061831,	 -0.134544,	 587.740422,	 963.524472,	 465.224667,	 4.127171 
10.554250,	 0.014376,	 0.005703,	 1919.965450,	 -0.124532,	 587.906010,	 964.530949,	 465.290198,	 4.126383 
10.635750,	 0.014403,	 0.005707,	 1919.876260,	 -0.114236,	 588.057008,	 965.450308,	 465.349947,	 4.125661 
10.717250,	 0.014429,	 0.005710,	 1919.794563,	 -0.103728,	 588.193319,	 966.281071,	 465.403878,	 4.125008 
10.798750,	 0.014455,	 0.005713,	 1919.720195,	 -0.093087,	 588.314793,	 967.022640,	 465.451933,	 4.124422 
10.880250,	 0.014480,	 0.005716,	 1919.653218,	 -0.082368,	 588.421446,	 967.674676,	 465.494121,	 4.123904 
10.961750,	 0.014504,	 0.005719,	 1919.593621,	 -0.071620,	 588.513346,	 968.237275,	 465.530470,	 4.123454 
11.043250,	 0.014528,	 0.005721,	 1919.541124,	 -0.060885,	 588.590512,	 968.710973,	 465.560989,	 4.123071 
11.124750,	 0.014551,	 0.005722,	 1919.495930,	 -0.050197,	 588.653212,	 969.096322,	 465.585785,	 4.122755 
11.206250,	 0.014574,	 0.005724,	 1919.457579,	 -0.039581,	 588.701477,	 969.394394,	 465.604872,	 4.122503 
11.287750,	 0.014594,	 0.005725,	 1919.426761,	 -0.029080,	 588.735888,	 969.606052,	 465.618480,	 4.122317 
11.369250,	 0.014612,	 0.005725,	 1919.402965,	 -0.018707,	 588.756544,	 969.732820,	 465.626648,	 4.122193 
11.450750,	 0.014628,	 0.005725,	 1919.385413,	 -0.008454,	 588.763398,	 969.776234,	 465.629358,	 4.122131 
11.532250,	 0.014646,	 0.005725,	 1919.373358,	 0.001693,	 588.756379,	 969.737692,	 465.626583,	 4.122130 
11.613750,	 0.014666,	 0.005725,	 1919.367320,	 0.011683,	 588.736056,	 969.618518,	 465.618546,	 4.122188 
11.695250,	 0.014686,	 0.005724,	 1919.367235,	 0.021500,	 588.702765,	 969.420366,	 465.605382,	 4.122305 
11.776750,	 0.014705,	 0.005723,	 1919.372847,	 0.031143,	 588.656759,	 969.144983,	 465.587188,	 4.122478 
11.858250,	 0.014724,	 0.005721,	 1919.383959,	 0.040606,	 588.598327,	 968.794166,	 465.564080,	 4.122706 
11.939750,	 0.014742,	 0.005719,	 1919.400528,	 0.049864,	 588.527869,	 968.369842,	 465.536214,	 4.122989 
12.021250,	 0.014759,	 0.005717,	 1919.422124,	 0.058934,	 588.445571,	 967.873942,	 465.503663,	 4.123323 
12.102750,	 0.014776,	 0.005715,	 1919.448691,	 0.067785,	 588.351855,	 967.308545,	 465.466593,	 4.123709 
12.184250,	 0.014793,	 0.005712,	 1919.479908,	 0.076419,	 588.246999,	 966.675764,	 465.425114,	 4.124143 
12.265750,	 0.014809,	 0.005709,	 1919.515545,	 0.084826,	 588.131352,	 965.977815,	 465.379361,	 4.124625 
12.347250,	 0.014824,	 0.005706,	 1919.555465,	 0.092976,	 588.005355,	 965.217084,	 465.329509,	 4.125153 
12.428750,	 0.014840,	 0.005702,	 1919.599277,	 0.100881,	 587.869291,	 964.395929,	 465.275667,	 4.125725 
12.510250,	 0.014853,	 0.005698,	 1919.647205,	 0.108443,	 587.723948,	 963.517290,	 465.218147,	 4.126338 
12.591750,	 0.014865,	 0.005694,	 1919.698627,	 0.115720,	 587.569521,	 962.583713,	 465.157024,	 4.126991 
12.673250,	 0.014876,	 0.005690,	 1919.753110,	 0.122720,	 587.406318,	 961.597810,	 465.092419,	 4.127681 
12.754750,	 0.014887,	 0.005686,	 1919.810397,	 0.129408,	 587.234817,	 960.562463,	 465.024519,	 4.128407 
12.836250,	 0.014898,	 0.005681,	 1919.870166,	 0.135769,	 587.055477,	 959.480656,	 464.953505,	 4.129166 
12.917750,	 0.014909,	 0.005676,	 1919.932013,	 0.141804,	 586.868701,	 958.355400,	 464.879535,	 4.129956 
12.999250,	 0.014921,	 0.005671,	 1919.995670,	 0.147474,	 586.675059,	 957.190026,	 464.802833,	 4.130774 
13.080750,	 0.014933,	 0.005666,	 1920.060878,	 0.152738,	 586.475198,	 955.988129,	 464.723655,	 4.131619 
13.162250,	 0.014944,	 0.005661,	 1920.127384,	 0.157544,	 586.269870,	 954.753627,	 464.642297,	 4.132485 
13.243750,	 0.014955,	 0.005655,	 1920.194666,	 0.161919,	 586.059554,	 953.490156,	 464.558947,	 4.133371 
13.325250,	 0.014966,	 0.005650,	 1920.262357,	 0.165822,	 585.844958,	 952.201788,	 464.473886,	 4.134274 
13.406750,	 0.014976,	 0.005644,	 1920.330020,	 0.169227,	 585.626781,	 950.892735,	 464.387390,	 4.135190 
13.488250,	 0.014986,	 0.005638,	 1920.397171,	 0.172119,	 585.405713,	 949.567321,	 464.299731,	 4.136115 
13.569750,	 0.014996,	 0.005632,	 1920.463377,	 0.174436,	 585.182642,	 948.230378,	 464.211261,	 4.137046 
13.651250,	 0.015005,	 0.005627,	 1920.528063,	 0.176178,	 584.958288,	 946.886581,	 464.122265,	 4.137979 
13.732750,	 0.015013,	 0.005621,	 1920.590687,	 0.177304,	 584.733537,	 945.541049,	 464.033094,	 4.138909 
13.814250,	 0.015022,	 0.005615,	 1920.650664,	 0.177772,	 584.509326,	 944.199176,	 463.944121,	 4.139832 
13.895750,	 0.015030,	 0.005609,	 1920.707349,	 0.177558,	 584.286571,	 942.866467,	 463.855709,	 4.140743 
13.977250,	 0.015037,	 0.005603,	 1920.760078,	 0.176579,	 584.066461,	 941.549272,	 463.768330,	 4.141637 
14.058750,	 0.015043,	 0.005598,	 1920.808090,	 0.174833,	 583.849953,	 940.253487,	 463.682364,	 4.142508 
14.140250,	 0.015048,	 0.005592,	 1920.850613,	 0.172289,	 583.638140,	 938.985430,	 463.598248,	 4.143352 
14.221750,	 0.015053,	 0.005587,	 1920.886816,	 0.168894,	 583.432238,	 937.751965,	 463.516464,	 4.144161 
14.303250,	 0.015058,	 0.005582,	 1920.915810,	 0.164607,	 583.233491,	 936.560168,	 463.437509,	 4.144930 
14.384750,	 0.015063,	 0.005577,	 1920.936647,	 0.159380,	 583.043221,	 935.417515,	 463.361908,	 4.145651 
14.466250,	 0.015069,	 0.005572,	 1920.948307,	 0.153161,	 582.862838,	 934.331966,	 463.290225,	 4.146317 
14.547750,	 0.015074,	 0.005567,	 1920.949687,	 0.145885,	 582.693865,	 933.312008,	 463.223065,	 4.146922 
14.629250,	 0.015080,	 0.005563,	 1920.939574,	 0.137483,	 582.537949,	 932.366648,	 463.161087,	 4.147455 
14.710750,	 0.015084,	 0.005560,	 1920.916706,	 0.127908,	 582.396731,	 931.505123,	 463.104944,	 4.147908 
14.792250,	 0.015089,	 0.005556,	 1920.879721,	 0.117099,	 582.271978,	 930.737244,	 463.055342,	 4.148272 
14.873750,	 0.015093,	 0.005553,	 1920.827146,	 0.104992,	 582.165582,	 930.073392,	 463.013034,	 4.148538 
14.955250,	 0.015097,	 0.005551,	 1920.757441,	 0.091522,	 582.079489,	 929.524446,	 462.978797,	 4.148694 
15.036750,	 0.015101,	 0.005549,	 1920.668915,	 0.076619,	 582.015816,	 929.101948,	 462.953473,	 4.148730 
15.118250,	 0.015105,	 0.005547,	 1920.559797,	 0.060213,	 581.976750,	 928.818021,	 462.937936,	 4.148633 
15.199750,	 0.015108,	 0.005547,	 1920.428267,	 0.042227,	 581.964566,	 928.685457,	 462.933090,	 4.148393 
15.281250,	 0.015110,	 0.005547,	 1920.271820,	 0.022628,	 581.982012,	 928.717691,	 462.940029,	 4.147993 
15.362750,	 0.015111,	 0.005548,	 1920.088670,	 0.001315,	 582.031368,	 928.928741,	 462.959659,	 4.147421 
15.444250,	 0.015111,	 0.005549,	 1919.876747,	 -0.021808,	 582.115252,	 929.333612,	 462.993019,	 4.146665 
15.525750,	 0.015113,	 0.005552,	 1919.634047,	 -0.046870,	 582.236393,	 929.948368,	 463.041192,	 4.145709 
15.607250,	 0.015115,	 0.005555,	 1919.357742,	 -0.073900,	 582.398003,	 930.789735,	 463.105450,	 4.144537 
15.688750,	 0.015117,	 0.005560,	 1919.045154,	 -0.102962,	 582.603253,	 931.875182,	 463.187047,	 4.143132 
15.770250,	 0.015119,	 0.005565,	 1918.693532,	 -0.134125,	 582.855424,	 933.223027,	 463.287278,	 4.141477 
15.851750,	 0.015120,	 0.005572,	 1918.300094,	 -0.167467,	 583.157911,	 934.852511,	 463.407480,	 4.139554 
15.933250,	 0.015122,	 0.005580,	 1917.861728,	 -0.203015,	 583.514306,	 936.783566,	 463.549063,	 4.137344 
16.014750,	 0.015123,	 0.005590,	 1917.375459,	 -0.240835,	 583.928246,	 939.037074,	 463.713453,	 4.134828 
16.096250,	 0.015124,	 0.005601,	 1916.838140,	 -0.280956,	 584.403509,	 941.634652,	 463.902124,	 4.131988 
16.177750,	 0.015125,	 0.005613,	 1916.246356,	 -0.323353,	 584.943994,	 944.598383,	 464.116594,	 4.128804 
16.259250,	 0.015126,	 0.005627,	 1915.597005,	 -0.368055,	 585.553577,	 947.951211,	 464.358364,	 4.125256 
0.040750,	 0.019388,	 0.044066,	 1532.895381,	 1.764601,	 1183.741031,	 15006.944307,	 660.234637,	 2.321745 
0.122250,	 0.019497,	 0.043604,	 1535.972601,	 1.634662,	 1179.697619,	 14798.736410,	 659.106060,	 2.330389 
0.203750,	 0.019645,	 0.043393,	 1537.389063,	 0.848623,	 1177.804347,	 14703.471910,	 658.576955,	 2.334411 
0.285250,	 0.019802,	 0.043344,	 1537.719855,	 0.243722,	 1177.319000,	 14680.961979,	 658.441249,	 2.335394 
0.366750,	 0.019967,	 0.043363,	 1537.599197,	 -0.036703,	 1177.417117,	 14688.567911,	 658.468685,	 2.335114 
0.448250,	 0.020138,	 0.043397,	 1537.380484,	 -0.110841,	 1177.637825,	 14702.705419,	 658.530398,	 2.334563 
0.529750,	 0.020315,	 0.043425,	 1537.195078,	 -0.100097,	 1177.809487,	 14714.595228,	 658.578392,	 2.334111 
0.611250,	 0.020497,	 0.043446,	 1537.067384,	 -0.069611,	 1177.901150,	 14722.600985,	 658.604019,	 2.333826 
0.692750,	 0.020684,	 0.043459,	 1536.986625,	 -0.042817,	 1177.925117,	 14727.419468,	 658.610719,	 2.333680 
0.774250,	 0.020877,	 0.043467,	 1536.939260,	 -0.023446,	 1177.900814,	 14729.969930,	 658.603925,	 2.333632 
0.855750,	 0.021072,	 0.043472,	 1536.918534,	 -0.008251,	 1177.837350,	 14730.707711,	 658.586182,	 2.333663 
0.937250,	 0.021270,	 0.043472,	 1536.927465,	 0.008096,	 1177.730125,	 14729.426717,	 658.556204,	 2.333783 
1.018750,	 0.021473,	 0.043466,	 1536.980725,	 0.032000,	 1177.560109,	 14725.148764,	 658.508668,	 2.334033 
1.100250,	 0.021678,	 0.043449,	 1537.106769,	 0.071226,	 1177.291159,	 14715.982031,	 658.433463,	 2.334491 
1.181750,	 0.021886,	 0.043414,	 1537.350074,	 0.135245,	 1176.865436,	 14698.960056,	 658.314404,	 2.335282 
1.263250,	 0.022097,	 0.043353,	 1537.772918,	 0.235021,	 1176.202097,	 14669.939840,	 658.128849,	 2.336583 
1.344750,	 0.022311,	 0.043253,	 1538.454880,	 0.382011,	 1175.199345,	 14623.665176,	 657.848250,	 2.338617 
1.426250,	 0.022527,	 0.043101,	 1539.489228,	 0.586889,	 1173.736015,	 14554.015677,	 657.438554,	 2.341647 
1.507750,	 0.022746,	 0.042881,	 1540.976401,	 0.857714,	 1171.681889,	 14454.512803,	 656.863019,	 2.345963 
1.589250,	 0.022966,	 0.042580,	 1543.014916,	 1.198478,	 1168.908393,	 14318.990885,	 656.085126,	 2.351852 
1.670750,	 0.023187,	 0.042184,	 1545.692003,	 1.608577,	 1165.298700,	 14142.283282,	 655.071318,	 2.359579 
1.752250,	 0.023411,	 0.041686,	 1549.074224,	 2.082126,	 1160.762552,	 13920.940488,	 653.795080,	 2.369360 
1.833750,	 0.023635,	 0.041081,	 1553.201733,	 2.609254,	 1155.240689,	 13653.613705,	 652.238142,	 2.381345 
1.915250,	 0.023861,	 0.040370,	 1558.086272,	 3.177762,	 1148.706826,	 13341.156284,	 650.391047,	 2.395620 
1.996750,	 0.024089,	 0.039556,	 1563.710048,	 3.773210,	 1141.172633,	 12986.654681,	 648.254630,	 2.412192 
2.078250,	 0.024319,	 0.038651,	 1570.031622,	 4.382389,	 1132.675814,	 12594.859194,	 645.836770,	 2.431013 
2.159750,	 0.024549,	 0.037665,	 1576.990623,	 4.993094,	 1123.279480,	 12171.777752,	 643.152358,	 2.451983 
2.241250,	 0.024780,	 0.036612,	 1584.514052,	 5.594371,	 1113.065337,	 11724.100713,	 640.221541,	 2.474962 
2.322750,	 0.025012,	 0.035508,	 1592.521728,	 6.177202,	 1102.127370,	 11258.716520,	 637.068083,	 2.499786 
2.404250,	 0.025245,	 0.034367,	 1600.928244,	 6.733514,	 1090.569910,	 10782.510244,	 633.718972,	 2.526266 
2.485750,	 0.025478,	 0.033202,	 1609.650005,	 7.257814,	 1078.497105,	 10301.819303,	 630.201519,	 2.554209 
2.567250,	 0.025712,	 0.032027,	 1618.608006,	 7.746816,	 1066.009393,	 9822.247295,	 626.542404,	 2.583427 
2.648750,	 0.025947,	 0.030854,	 1627.729055,	 8.198627,	 1053.201984,	 9348.609940,	 622.767281,	 2.613737 
2.730250,	 0.026182,	 0.029691,	 1636.947175,	 8.612493,	 1040.162685,	 8884.884045,	 618.900151,	 2.644966 
2.811750,	 0.026418,	 0.028547,	 1646.204194,	 8.988553,	 1026.970803,	 8434.225419,	 614.963021,	 2.676956 
2.893250,	 0.026654,	 0.027428,	 1655.449722,	 9.327572,	 1013.696852,	 7999.033054,	 610.975791,	 2.709561 
2.974750,	 0.026890,	 0.026340,	 1664.641250,	 9.631093,	 1000.401956,	 7581.006904,	 606.956015,	 2.742652 
3.056250,	 0.027126,	 0.025287,	 1673.743017,	 9.901056,	 987.139716,	 7181.280259,	 602.919411,	 2.776113 
3.137750,	 0.027362,	 0.024270,	 1682.725376,	 10.139339,	 973.955676,	 6800.515959,	 598.879642,	 2.809840 
3.219250,	 0.027599,	 0.023292,	 1691.564722,	 10.347906,	 960.886763,	 6438.956342,	 594.848073,	 2.843745 
3.300750,	 0.027835,	 0.022354,	 1700.242188,	 10.528718,	 947.963945,	 6096.535441,	 590.834523,	 2.877751 
3.382250,	 0.028071,	 0.021456,	 1708.742876,	 10.683629,	 935.213157,	 5772.954457,	 586.847498,	 2.911789 
3.463750,	 0.028307,	 0.020599,	 1717.055059,	 10.814124,	 922.656337,	 5467.750370,	 582.894474,	 2.945798 
3.545250,	 0.028542,	 0.019780,	 1725.170809,	 10.922292,	 910.310033,	 5180.284568,	 578.981408,	 2.979725 
3.626750,	 0.028777,	 0.019001,	 1733.084301,	 11.009927,	 898.188043,	 4909.847771,	 575.113534,	 3.013525 
3.708250,	 0.029013,	 0.018259,	 1740.791259,	 11.078163,	 886.302182,	 4655.697031,	 571.295579,	 3.047156 
3.789750,	 0.029247,	 0.017553,	 1748.289630,	 11.128329,	 874.660928,	 4417.031183,	 567.531298,	 3.080579 
3.871250,	 0.029481,	 0.016883,	 1755.579018,	 11.161924,	 863.270199,	 4193.024558,	 563.823701,	 3.113765 
3.952750,	 0.029715,	 0.016246,	 1762.659909,	 11.180155,	 852.134592,	 3982.865993,	 560.175424,	 3.146685 
4.034250,	 0.029948,	 0.015642,	 1769.533541,	 11.183884,	 841.257536,	 3785.765751,	 556.588767,	 3.179311 
4.115750,	 0.030181,	 0.015069,	 1776.202247,	 11.174198,	 830.640552,	 3600.940591,	 553.065436,	 3.211622 
4.197250,	 0.030412,	 0.014525,	 1782.668413,	 11.151501,	 820.285098,	 3427.657763,	 549.607138,	 3.243596 
4.278750,	 0.030643,	 0.014008,	 1788.935698,	 11.116978,	 810.190218,	 3265.182393,	 546.214785,	 3.275214 
4.360250,	 0.030873,	 0.013519,	 1795.007529,	 11.071249,	 800.355287,	 3112.837497,	 542.889401,	 3.306459 
4.441750,	 0.031102,	 0.013055,	 1800.887700,	 11.014957,	 790.778862,	 2969.977017,	 539.631732,	 3.337316 
4.523250,	 0.031331,	 0.012614,	 1806.580097,	 10.948615,	 781.459137,	 2835.993870,	 536.442392,	 3.367768 
4.604750,	 0.031559,	 0.012197,	 1812.088672,	 10.872680,	 772.393880,	 2710.317359,	 533.321836,	 3.397801 
4.686250,	 0.031786,	 0.011801,	 1817.417614,	 10.787554,	 763.580413,	 2592.407540,	 530.270349,	 3.427402 
4.767750,	 0.032012,	 0.011425,	 1822.570963,	 10.693460,	 755.016115,	 2481.763969,	 527.288214,	 3.456558 
4.849250,	 0.032236,	 0.011069,	 1827.552931,	 10.590865,	 746.697795,	 2377.911924,	 524.375495,	 3.485257 
4.930750,	 0.032460,	 0.010732,	 1832.367346,	 10.479770,	 738.622817,	 2280.419469,	 521.532423,	 3.513487 
5.012250,	 0.032682,	 0.010411,	 1837.018343,	 10.360682,	 730.787669,	 2188.870932,	 518.758898,	 3.541236 
5.093750,	 0.032903,	 0.010107,	 1841.509500,	 10.233449,	 723.189769,	 2102.894347,	 516.055119,	 3.568491 
5.175250,	 0.033123,	 0.009819,	 1845.844730,	 10.098520,	 715.825586,	 2022.129164,	 513.420922,	 3.595242 
5.256750,	 0.033342,	 0.009546,	 1850.027353,	 9.955639,	 708.692627,	 1946.255134,	 510.856485,	 3.621475 
5.338250,	 0.033559,	 0.009287,	 1854.061036,	 9.805234,	 701.787408,	 1874.959746,	 508.361602,	 3.647181 
5.419750,	 0.033774,	 0.009041,	 1857.948938,	 9.647228,	 695.107306,	 1807.963803,	 505.936346,	 3.672347 
5.501250,	 0.033989,	 0.008808,	 1861.694269,	 9.481800,	 688.649356,	 1745.002371,	 503.580641,	 3.696962 
5.582750,	 0.034202,	 0.008587,	 1865.299961,	 9.308907,	 682.410997,	 1685.833695,	 501.294526,	 3.721012 
5.664250,	 0.034415,	 0.008378,	 1868.768882,	 9.128600,	 676.389593,	 1630.231222,	 499.077984,	 3.744487 
5.745750,	 0.034625,	 0.008179,	 1872.103730,	 8.940878,	 670.582676,	 1577.985608,	 496.931032,	 3.767374 
5.827250,	 0.034834,	 0.007992,	 1875.307043,	 8.745652,	 664.987962,	 1528.903687,	 494.853727,	 3.789660 
5.908750,	 0.035040,	 0.007814,	 1878.381331,	 8.543018,	 659.603022,	 1482.803286,	 492.846041,	 3.811334 
5.990250,	 0.035245,	 0.007646,	 1881.328962,	 8.333116,	 654.425544,	 1439.515522,	 490.907961,	 3.832383 