TITLE = "Final State"
VARIABLES = "X", "Y", "rho", "u", "v", "T", "p", "c", "M"
ZONE I=101, J=51, DATAPACKING=POINT
0.000000,	 0.000000,	 0.044552,	 1532.898449,	 -0.002591,	 1188.339400,	 15231.172305,	 661.515770,	 2.317252 
0.004140,	 0.000000,	 0.044551,	 1532.897655,	 0.000144,	 1188.339473,	 15230.907455,	 661.515790,	 2.317250 
0.008280,	 0.000000,	 0.044550,	 1532.899819,	 0.000901,	 1188.334710,	 15230.706314,	 661.514464,	 2.317258 
0.012421,	 0.000000,	 0.044550,	 1532.900828,	 -0.000382,	 1188.332360,	 15230.539320,	 661.513810,	 2.317262 
0.016561,	 0.000000,	 0.044550,	 1532.900087,	 -0.000050,	 1188.332349,	 15230.648717,	 661.513807,	 2.317261 
0.020701,	 0.000000,	 0.044550,	 1532.900593,	 -0.000061,	 1188.332432,	 15230.707410,	 661.513830,	 2.317262 
0.024841,	 0.000000,	 0.044551,	 1532.904324,	 -0.001064,	 1188.333459,	 15230.772964,	 661.514116,	 2.317266 
0.028981,	 0.000000,	 0.044554,	 1532.891751,	 -0.006087,	 1188.346565,	 15232.181547,	 661.517764,	 2.317234 
0.033122,	 0.000000,	 0.044546,	 1532.947221,	 -0.002091,	 1188.278014,	 15228.414891,	 661.498684,	 2.317385 
0.037262,	 0.000000,	 0.044510,	 1533.141574,	 0.027022,	 1188.051519,	 15213.250447,	 661.435637,	 2.317900 
0.041402,	 0.000000,	 0.044464,	 1533.209525,	 -0.019580,	 1187.720654,	 15193.347960,	 661.343528,	 2.318325 
0.045542,	 0.000000,	 0.044722,	 1531.464837,	 -0.417883,	 1189.605897,	 15305.829805,	 661.868188,	 2.313852 
0.049682,	 0.000000,	 0.045458,	 1526.676142,	 -0.645594,	 1195.345829,	 15632.748724,	 663.463047,	 2.301072 
0.053823,	 0.000000,	 0.045785,	 1523.653003,	 -1.231460,	 1198.991256,	 15793.065303,	 664.473953,	 2.293022 
0.057963,	 0.000000,	 0.044797,	 1529.762184,	 -0.634015,	 1192.033408,	 15362.594335,	 662.543148,	 2.308925 
0.062103,	 0.000000,	 0.041709,	 1550.604303,	 2.852247,	 1167.717842,	 14012.016348,	 655.750924,	 2.364628 
0.066243,	 0.000000,	 0.037240,	 1581.386023,	 1.662109,	 1131.170276,	 12119.090153,	 645.407408,	 2.450215 
0.070383,	 0.000000,	 0.032833,	 1613.671192,	 0.746391,	 1092.016611,	 10314.863612,	 634.139164,	 2.544664 
0.074524,	 0.000000,	 0.028894,	 1644.656996,	 0.880297,	 1053.658210,	 8758.640433,	 622.902152,	 2.640314 
0.078664,	 0.000000,	 0.025450,	 1673.813532,	 0.515795,	 1016.848190,	 7445.019677,	 611.924742,	 2.735326 
0.082804,	 0.000000,	 0.022543,	 1700.264313,	 0.371776,	 982.876043,	 6374.328116,	 601.615931,	 2.826162 
0.086944,	 0.000000,	 0.020073,	 1724.360648,	 0.389457,	 951.434675,	 5494.324709,	 591.915130,	 2.913189 
0.091084,	 0.000000,	 0.017966,	 1746.331909,	 0.289269,	 922.338616,	 4767.421661,	 582.794104,	 2.996482 
0.095225,	 0.000000,	 0.016170,	 1766.382509,	 0.258298,	 895.508208,	 4165.809613,	 574.254939,	 3.075955 
0.099365,	 0.000000,	 0.014623,	 1784.756479,	 0.247849,	 870.640523,	 3662.764448,	 566.225458,	 3.152024 
0.103505,	 0.000000,	 0.013285,	 1801.636677,	 0.195295,	 847.547514,	 3239.368204,	 558.665665,	 3.224892 
0.107645,	 0.000000,	 0.012124,	 1817.173805,	 0.160944,	 826.114260,	 2881.560498,	 551.556507,	 3.294629 
0.111785,	 0.000000,	 0.011110,	 1831.512983,	 0.141872,	 806.131540,	 2576.545511,	 544.844925,	 3.361531 
0.115926,	 0.000000,	 0.010223,	 1844.751649,	 0.099839,	 787.492511,	 2315.984151,	 538.509253,	 3.425664 
0.120066,	 0.000000,	 0.009456,	 1856.823673,	 0.135333,	 770.398692,	 2095.802433,	 532.632573,	 3.486125 
0.124206,	 0.000000,	 0.008786,	 1867.892138,	 0.144582,	 754.661963,	 1907.543537,	 527.164533,	 3.543281 
0.128346,	 0.000000,	 0.008196,	 1878.088244,	 0.162778,	 740.107426,	 1745.218534,	 522.056292,	 3.597482 
0.132486,	 0.000000,	 0.007676,	 1887.481414,	 0.219096,	 726.644966,	 1604.723479,	 517.286433,	 3.648813 
0.136627,	 0.000000,	 0.007218,	 1896.091124,	 0.337054,	 714.248985,	 1483.269700,	 512.855207,	 3.697128 
0.140767,	 0.000000,	 0.006821,	 1903.840337,	 0.570171,	 703.051428,	 1379.738162,	 508.819212,	 3.741683 
0.144907,	 0.000000,	 0.006483,	 1910.678214,	 1.086969,	 693.148299,	 1292.860357,	 505.222908,	 3.781853 
0.149047,	 0.000000,	 0.006198,	 1916.385375,	 1.714837,	 684.873249,	 1221.204926,	 502.198088,	 3.815996 
0.153187,	 0.000000,	 0.005952,	 1920.739458,	 1.496261,	 678.560435,	 1161.913307,	 499.878226,	 3.842416 
0.157328,	 0.000000,	 0.005763,	 1923.497214,	 -0.183218,	 674.566424,	 1118.489796,	 498.404912,	 3.859306 
0.161468,	 0.000000,	 0.005700,	 1924.294788,	 -2.110955,	 673.121165,	 1103.799731,	 497.870709,	 3.865052 
0.165608,	 0.000000,	 0.005793,	 1922.772566,	 -2.554004,	 673.939999,	 1123.221095,	 498.173441,	 3.859648 
0.169748,	 0.000000,	 0.005992,	 1919.710053,	 -2.148841,	 678.554787,	 1169.719215,	 499.876146,	 3.840374 
0.173888,	 0.000000,	 0.006225,	 1915.212703,	 -1.487682,	 685.921439,	 1228.354743,	 502.582245,	 3.810746 
0.178029,	 0.000000,	 0.006371,	 1911.587320,	 -2.253557,	 690.513904,	 1265.684585,	 504.261913,	 3.790865 
0.182169,	 0.000000,	 0.006483,	 1908.979030,	 -2.565527,	 694.833809,	 1295.899861,	 505.836804,	 3.773906 
0.186309,	 0.000000,	 0.006543,	 1907.622977,	 -2.155062,	 697.641309,	 1313.161636,	 506.857699,	 3.763629 
0.190449,	 0.000000,	 0.006556,	 1907.668169,	 -1.744060,	 697.693120,	 1315.953292,	 506.876520,	 3.763577 
0.194589,	 0.000000,	 0.006538,	 1908.644300,	 -1.007340,	 696.268351,	 1309.659164,	 506.358706,	 3.769353 
0.198730,	 0.000000,	 0.006512,	 1909.463573,	 -0.326575,	 695.012043,	 1302.154527,	 505.901676,	 3.774377 
0.202870,	 0.000000,	 0.006487,	 1909.828694,	 0.055128,	 694.425516,	 1295.935240,	 505.688164,	 3.776692 
0.207010,	 0.000000,	 0.006467,	 1910.076542,	 -0.064535,	 694.060429,	 1291.247904,	 505.555216,	 3.778176 
0.211150,	 0.000000,	 0.006468,	 1910.106269,	 -0.152121,	 693.899755,	 1291.291480,	 505.496695,	 3.778672 
0.215290,	 0.000000,	 0.006484,	 1909.957602,	 -0.172978,	 693.948859,	 1294.514992,	 505.514581,	 3.778244 
0.219431,	 0.000000,	 0.006499,	 1909.732807,	 -0.176340,	 694.301316,	 1298.247966,	 505.642940,	 3.776841 
0.223571,	 0.000000,	 0.006508,	 1909.560590,	 -0.235034,	 694.708647,	 1300.668951,	 505.791243,	 3.775393 
0.227711,	 0.000000,	 0.006513,	 1909.457310,	 -0.245298,	 694.947160,	 1302.096868,	 505.878062,	 3.774541 
0.231851,	 0.000000,	 0.006513,	 1909.448527,	 -0.245173,	 694.959551,	 1302.179898,	 505.882572,	 3.774490 
0.235991,	 0.000000,	 0.006511,	 1909.493811,	 -0.201279,	 694.891665,	 1301.588763,	 505.857863,	 3.774764 
0.240132,	 0.000000,	 0.006506,	 1909.581892,	 -0.147889,	 694.761751,	 1300.470495,	 505.810574,	 3.775291 
0.244272,	 0.000000,	 0.006501,	 1909.694393,	 -0.094487,	 694.596684,	 1299.056256,	 505.750483,	 3.775962 
0.248412,	 0.000000,	 0.006495,	 1909.816090,	 -0.048994,	 694.418400,	 1297.531994,	 505.685573,	 3.776687 
0.252552,	 0.000000,	 0.006489,	 1909.936578,	 -0.019294,	 694.241934,	 1296.027094,	 505.621316,	 3.777405 
0.256692,	 0.000000,	 0.006483,	 1910.049463,	 0.028148,	 694.076689,	 1294.619557,	 505.561138,	 3.778078 
0.260833,	 0.000000,	 0.006478,	 1910.132926,	 0.114640,	 693.922263,	 1293.300173,	 505.504893,	 3.778664 
0.264973,	 0.000000,	 0.006475,	 1910.156813,	 0.063213,	 693.813266,	 1292.449587,	 505.465191,	 3.779008 
0.269113,	 0.000000,	 0.006475,	 1910.125241,	 -0.031181,	 693.751799,	 1292.385065,	 505.442800,	 3.779113 
0.273253,	 0.000000,	 0.006481,	 1910.029886,	 -0.109130,	 693.779246,	 1293.552693,	 505.452799,	 3.778849 
0.277393,	 0.000000,	 0.006490,	 1909.884869,	 -0.133728,	 694.010085,	 1295.856164,	 505.536881,	 3.777934 
0.281534,	 0.000000,	 0.006499,	 1909.722666,	 -0.155215,	 694.361366,	 1298.292192,	 505.664806,	 3.776657 
0.285674,	 0.000000,	 0.006504,	 1909.615068,	 -0.201444,	 694.633331,	 1299.832972,	 505.763825,	 3.775705 
0.289814,	 0.000000,	 0.006506,	 1909.569792,	 -0.196578,	 694.764277,	 1300.509742,	 505.811494,	 3.775260 
0.293954,	 0.000000,	 0.006506,	 1909.572752,	 -0.194731,	 694.758761,	 1300.457804,	 505.809485,	 3.775281 
0.298094,	 0.000000,	 0.006504,	 1909.624801,	 -0.169012,	 694.681660,	 1299.797204,	 505.781419,	 3.775593 
0.302235,	 0.000000,	 0.006500,	 1909.705759,	 -0.125864,	 694.562969,	 1298.780585,	 505.738209,	 3.776076 
0.306375,	 0.000000,	 0.006495,	 1909.806312,	 -0.085836,	 694.415985,	 1297.523887,	 505.684694,	 3.776674 
0.310515,	 0.000000,	 0.006489,	 1909.918492,	 -0.053795,	 694.252258,	 1296.125780,	 505.625076,	 3.777341 
0.314655,	 0.000000,	 0.006484,	 1910.036357,	 -0.030878,	 694.080379,	 1294.659343,	 505.562482,	 3.778042 
0.318795,	 0.000000,	 0.006478,	 1910.155582,	 -0.015743,	 693.906641,	 1293.178679,	 505.499203,	 3.778751 
0.322936,	 0.000000,	 0.006472,	 1910.273648,	 0.007006,	 693.734718,	 1291.715607,	 505.436578,	 3.779453 
0.327076,	 0.000000,	 0.006467,	 1910.382800,	 0.024957,	 693.575730,	 1290.364352,	 505.378658,	 3.780102 
0.331216,	 0.000000,	 0.006462,	 1910.480686,	 0.041928,	 693.433026,	 1289.149383,	 505.326664,	 3.780685 
0.335356,	 0.000000,	 0.006457,	 1910.556829,	 0.101741,	 693.302476,	 1287.963773,	 505.279094,	 3.781191 
0.339496,	 0.000000,	 0.006454,	 1910.584000,	 0.063687,	 693.208618,	 1287.157675,	 505.244890,	 3.781501 
0.343637,	 0.000000,	 0.006454,	 1910.566063,	 -0.017646,	 693.145885,	 1287.061110,	 505.222029,	 3.781636 
0.347777,	 0.000000,	 0.006459,	 1910.501906,	 -0.075044,	 693.151463,	 1288.010949,	 505.224061,	 3.781494 
0.351917,	 0.000000,	 0.006465,	 1910.404753,	 -0.095855,	 693.310213,	 1289.599505,	 505.281913,	 3.780869 
0.356057,	 0.000000,	 0.006470,	 1910.322864,	 -0.138006,	 693.542902,	 1290.868874,	 505.366697,	 3.780073 
0.360197,	 0.000000,	 0.006472,	 1910.273164,	 -0.160363,	 693.704178,	 1291.646561,	 505.425452,	 3.779535 
0.364338,	 0.000000,	 0.006473,	 1910.260019,	 -0.164665,	 693.749577,	 1291.855845,	 505.441991,	 3.779385 
0.368478,	 0.000000,	 0.006472,	 1910.278664,	 -0.127061,	 693.722156,	 1291.622253,	 505.432002,	 3.779497 
0.372618,	 0.000000,	 0.006470,	 1910.311850,	 -0.080124,	 693.673651,	 1291.209354,	 505.414332,	 3.779695 
0.376758,	 0.000000,	 0.006468,	 1910.357062,	 -0.054435,	 693.607746,	 1290.648586,	 505.390322,	 3.779964 
0.380898,	 0.000000,	 0.006465,	 1910.418626,	 -0.056692,	 693.518145,	 1289.888401,	 505.357677,	 3.780330 
0.385039,	 0.000000,	 0.006463,	 1910.513821,	 -0.074995,	 693.379762,	 1289.176634,	 505.307256,	 3.780895 
0.389179,	 0.000000,	 0.006462,	 1910.654002,	 0.013764,	 693.252588,	 1288.753168,	 505.260914,	 3.781520 
0.393319,	 0.000000,	 0.006457,	 1910.832775,	 0.199688,	 693.078524,	 1287.527836,	 505.197479,	 3.782348 
0.397459,	 0.000000,	 0.006444,	 1911.122866,	 0.352774,	 692.666520,	 1284.231384,	 505.047298,	 3.784047 
0.401599,	 0.000000,	 0.006423,	 1911.592339,	 0.440058,	 691.985220,	 1278.600868,	 504.798857,	 3.786840 
0.405740,	 0.000000,	 0.006391,	 1912.227221,	 0.400697,	 691.033086,	 1270.568101,	 504.451449,	 3.790706 
0.409880,	 0.000000,	 0.006352,	 1913.009947,	 0.301055,	 689.854929,	 1260.595803,	 504.021241,	 3.795495 
0.414020,	 0.000000,	 0.006308,	 1913.911683,	 0.238309,	 688.532845,	 1249.510658,	 503.538039,	 3.800928 
0.000000,	 0.000655,	 0.044552,	 1532.900971,	 -0.003351,	 1188.334564,	 15231.358126,	 661.514424,	 2.317260 
0.004140,	 0.000663,	 0.044551,	 1532.899746,	 0.000264,	 1188.334889,	 15230.846382,	 661.514514,	 2.317258 
0.008280,	 0.000673,	 0.044550,	 1532.900319,	 0.001263,	 1188.333117,	 15230.692806,	 661.514021,	 2.317261 
0.012421,	 0.000685,	 0.044550,	 1532.900778,	 0.000032,	 1188.332400,	 15230.551978,	 661.513822,	 2.317262 
0.016561,	 0.000697,	 0.044550,	 1532.901070,	 -0.000163,	 1188.332443,	 15230.654016,	 661.513834,	 2.317262 
0.020701,	 0.000710,	 0.044550,	 1532.902712,	 -0.000255,	 1188.332369,	 15230.712233,	 661.513813,	 2.317265 
0.024841,	 0.000724,	 0.044551,	 1532.908305,	 -0.002822,	 1188.334687,	 15230.818823,	 661.514458,	 2.317271 
0.028981,	 0.000738,	 0.044554,	 1532.897138,	 0.000134,	 1188.344326,	 15232.180230,	 661.517141,	 2.317245 
0.033122,	 0.000752,	 0.044546,	 1532.956175,	 0.039068,	 1188.268576,	 15228.208954,	 661.496057,	 2.317408 
0.037262,	 0.000767,	 0.044512,	 1533.158520,	 0.100392,	 1188.024210,	 15213.676732,	 661.428035,	 2.317952 
0.041402,	 0.000782,	 0.044491,	 1533.249734,	 -0.165309,	 1187.950700,	 15205.461868,	 661.407572,	 2.318162 
0.045542,	 0.000797,	 0.044764,	 1531.461137,	 -1.565092,	 1190.006312,	 15325.098753,	 661.979569,	 2.313458 
0.049682,	 0.000812,	 0.045477,	 1526.831852,	 -2.285536,	 1195.361739,	 15639.443846,	 663.467462,	 2.301294 
0.053823,	 0.000828,	 0.045865,	 1524.478388,	 -0.476566,	 1198.127069,	 15809.251729,	 664.234446,	 2.295091 
0.057963,	 0.000843,	 0.044676,	 1531.765044,	 5.610119,	 1189.665472,	 15290.611302,	 661.884761,	 2.314263 
0.062103,	 0.000859,	 0.041446,	 1552.377665,	 14.121065,	 1165.475462,	 13896.957718,	 655.120999,	 2.369703 
0.066243,	 0.000875,	 0.037143,	 1581.930121,	 17.985598,	 1130.232907,	 12077.343615,	 645.139937,	 2.452231 
0.070383,	 0.000891,	 0.032770,	 1613.962599,	 19.106693,	 1091.309665,	 10288.503185,	 633.933867,	 2.546126 
0.074524,	 0.000907,	 0.028838,	 1644.916661,	 20.197768,	 1052.941110,	 8735.583145,	 622.690148,	 2.641829 
0.078664,	 0.000923,	 0.025423,	 1673.827547,	 20.344533,	 1016.396788,	 7433.955545,	 611.788903,	 2.736158 
0.082804,	 0.000939,	 0.022520,	 1700.234408,	 20.224720,	 982.428813,	 6364.901812,	 601.479042,	 2.826956 
0.086944,	 0.000955,	 0.020054,	 1724.336380,	 20.110912,	 951.013997,	 5486.783111,	 591.784257,	 2.913990 
0.091084,	 0.000971,	 0.017954,	 1746.323534,	 19.818139,	 921.982567,	 4762.281092,	 582.681606,	 2.997239 
0.095225,	 0.000987,	 0.016159,	 1766.389274,	 19.507813,	 895.156265,	 4161.323004,	 574.142084,	 3.076759 
0.099365,	 0.001002,	 0.014614,	 1784.773008,	 19.209856,	 870.314010,	 3659.225161,	 566.119274,	 3.152827 
0.103505,	 0.001018,	 0.013279,	 1801.664661,	 18.848062,	 847.262245,	 3236.875552,	 558.571638,	 3.225662 
0.107645,	 0.001034,	 0.012120,	 1817.212441,	 18.471808,	 825.845174,	 2879.539714,	 551.466672,	 3.295406 
0.111785,	 0.001049,	 0.011107,	 1831.567944,	 18.114752,	 805.901180,	 2575.288321,	 544.767072,	 3.362276 
0.115926,	 0.001065,	 0.010223,	 1844.814541,	 17.603547,	 787.376042,	 2315.669277,	 538.469429,	 3.426190 
0.120066,	 0.001080,	 0.009455,	 1856.901308,	 17.015999,	 770.377132,	 2095.632195,	 532.625120,	 3.486466 
0.124206,	 0.001096,	 0.008785,	 1867.978091,	 16.443153,	 754.696219,	 1907.482446,	 527.176498,	 3.543501 
0.128346,	 0.001111,	 0.008196,	 1878.183037,	 15.920236,	 740.155100,	 1745.145819,	 522.073106,	 3.597677 
0.132486,	 0.001125,	 0.007676,	 1887.573034,	 15.407818,	 726.699972,	 1604.768757,	 517.306012,	 3.648973 
0.136627,	 0.001140,	 0.007219,	 1896.182101,	 14.880287,	 714.309098,	 1483.419240,	 512.876788,	 3.697263 
0.140767,	 0.001155,	 0.006817,	 1903.949692,	 14.245678,	 703.085671,	 1378.816669,	 508.831603,	 3.741912 
0.144907,	 0.001169,	 0.006465,	 1910.818380,	 13.207936,	 693.129719,	 1289.142047,	 505.216137,	 3.782270 
0.149047,	 0.001183,	 0.006175,	 1916.611126,	 11.579226,	 684.714049,	 1216.411863,	 502.139716,	 3.816958 
0.153187,	 0.001197,	 0.005963,	 1921.131500,	 8.893146,	 678.142042,	 1163.361673,	 499.724093,	 3.844426 
0.157328,	 0.001211,	 0.005837,	 1924.070946,	 4.458480,	 673.871756,	 1131.563548,	 498.148217,	 3.862457 
0.161468,	 0.001224,	 0.005800,	 1924.855472,	 -1.522298,	 672.689609,	 1122.481796,	 497.711085,	 3.867417 
0.165608,	 0.001237,	 0.005866,	 1923.231809,	 -6.704601,	 675.384681,	 1139.866289,	 498.707106,	 3.856459 
0.169748,	 0.001250,	 0.006022,	 1919.841539,	 -9.979796,	 680.166234,	 1178.352021,	 500.469353,	 3.836134 
0.173888,	 0.001263,	 0.006226,	 1915.579453,	 -9.906018,	 686.323752,	 1229.342196,	 502.729613,	 3.810408 
0.178029,	 0.001275,	 0.006392,	 1912.126171,	 -7.978888,	 691.892010,	 1272.270477,	 504.764858,	 3.788185 
0.182169,	 0.001287,	 0.006512,	 1909.694415,	 -5.694275,	 695.159899,	 1302.328266,	 505.955486,	 3.774448 
0.186309,	 0.001299,	 0.006576,	 1908.466798,	 -2.962570,	 696.526269,	 1317.808337,	 506.452482,	 3.768308 
0.190449,	 0.001310,	 0.006582,	 1908.308054,	 -0.518799,	 696.701188,	 1319.251242,	 506.516070,	 3.767517 
0.194589,	 0.001321,	 0.006551,	 1908.820877,	 0.937773,	 695.961807,	 1311.671013,	 506.247227,	 3.770531 
0.198730,	 0.001332,	 0.006516,	 1909.496950,	 1.288883,	 694.953625,	 1302.695372,	 505.880415,	 3.774602 
0.202870,	 0.001343,	 0.006492,	 1909.969631,	 1.046815,	 694.219927,	 1296.636654,	 505.613302,	 3.777531 
0.207010,	 0.001353,	 0.006478,	 1910.245526,	 0.377126,	 693.804000,	 1293.101649,	 505.461816,	 3.779208 
0.211150,	 0.001362,	 0.006477,	 1910.265794,	 -0.323996,	 693.849026,	 1292.966178,	 505.478217,	 3.779126 
0.215290,	 0.001371,	 0.006487,	 1910.085886,	 -0.695072,	 694.202122,	 1295.490556,	 505.606818,	 3.777809 
0.219431,	 0.001380,	 0.006500,	 1909.841383,	 -0.684229,	 694.569692,	 1298.831573,	 505.740657,	 3.776326 
0.223571,	 0.001389,	 0.006510,	 1909.647057,	 -0.570282,	 694.822313,	 1301.280495,	 505.832619,	 3.775255 
0.227711,	 0.001397,	 0.006515,	 1909.538613,	 -0.369264,	 694.958214,	 1302.513897,	 505.882085,	 3.774671 
0.231851,	 0.001405,	 0.006515,	 1909.527974,	 -0.151897,	 694.971733,	 1302.655606,	 505.887005,	 3.774614 
0.235991,	 0.001412,	 0.006513,	 1909.584832,	 0.020145,	 694.874063,	 1301.958938,	 505.851456,	 3.774991 
0.240132,	 0.001419,	 0.006508,	 1909.677650,	 0.146789,	 694.710784,	 1300.734474,	 505.792021,	 3.775618 
0.244272,	 0.001426,	 0.006502,	 1909.794189,	 0.231020,	 694.511955,	 1299.215812,	 505.719636,	 3.776389 
0.248412,	 0.001433,	 0.006496,	 1909.916069,	 0.271818,	 694.310375,	 1297.641636,	 505.646239,	 3.777178 
0.252552,	 0.001439,	 0.006490,	 1910.037883,	 0.295625,	 694.123067,	 1296.002868,	 505.578028,	 3.777929 
0.256692,	 0.001446,	 0.006483,	 1910.153878,	 0.291625,	 693.953379,	 1294.328324,	 505.516227,	 3.778620 
0.260833,	 0.001451,	 0.006478,	 1910.242720,	 0.215481,	 693.833901,	 1293.097837,	 505.472708,	 3.779121 
0.264973,	 0.001457,	 0.006476,	 1910.278314,	 0.035479,	 693.807178,	 1292.698357,	 505.462973,	 3.779265 
0.269113,	 0.001462,	 0.006478,	 1910.251294,	 -0.162996,	 693.890114,	 1293.162328,	 505.493183,	 3.778985 
0.273253,	 0.001467,	 0.006483,	 1910.152970,	 -0.386114,	 694.082732,	 1294.530167,	 505.563339,	 3.778266 
0.277393,	 0.001472,	 0.006491,	 1909.995806,	 -0.512971,	 694.312821,	 1296.618858,	 505.647129,	 3.777330 
0.281534,	 0.001477,	 0.006500,	 1909.821452,	 -0.507277,	 694.557440,	 1298.878932,	 505.736196,	 3.776320 
0.285674,	 0.001482,	 0.006506,	 1909.700635,	 -0.398591,	 694.723836,	 1300.324483,	 505.796772,	 3.775628 
0.289814,	 0.001485,	 0.006508,	 1909.647274,	 -0.242225,	 694.781728,	 1300.916401,	 505.817846,	 3.775366 
0.293954,	 0.001489,	 0.006508,	 1909.652560,	 -0.086621,	 694.771863,	 1300.863486,	 505.814255,	 3.775403 
0.298094,	 0.001493,	 0.006505,	 1909.710705,	 0.052391,	 694.674200,	 1300.138257,	 505.778703,	 3.775783 
0.302235,	 0.001497,	 0.006501,	 1909.796061,	 0.151001,	 694.528050,	 1299.028667,	 505.725496,	 3.776349 
0.306375,	 0.001500,	 0.006496,	 1909.900178,	 0.217381,	 694.356806,	 1297.691727,	 505.663146,	 3.777021 
0.310515,	 0.001504,	 0.006491,	 1910.014478,	 0.259069,	 694.173832,	 1296.236048,	 505.596516,	 3.777745 
0.314655,	 0.001507,	 0.006485,	 1910.132633,	 0.281912,	 693.987880,	 1294.739286,	 505.528793,	 3.778484 
0.318795,	 0.001510,	 0.006479,	 1910.253060,	 0.296750,	 693.802431,	 1293.181915,	 505.461244,	 3.779228 
0.322936,	 0.001512,	 0.006473,	 1910.372174,	 0.291116,	 693.625368,	 1291.626132,	 505.396742,	 3.779946 
0.327076,	 0.001514,	 0.006467,	 1910.482693,	 0.272149,	 693.464517,	 1290.188599,	 505.338138,	 3.780603 
0.331216,	 0.001517,	 0.006461,	 1910.582877,	 0.256625,	 693.318684,	 1288.825482,	 505.285000,	 3.781199 
0.335356,	 0.001519,	 0.006457,	 1910.662559,	 0.201860,	 693.209381,	 1287.763113,	 505.245169,	 3.781654 
0.339496,	 0.001521,	 0.006455,	 1910.699959,	 0.052245,	 693.176693,	 1287.360577,	 505.233256,	 3.781817 
0.343637,	 0.001523,	 0.006456,	 1910.686585,	 -0.121085,	 693.238273,	 1287.671167,	 505.255697,	 3.781623 
0.347777,	 0.001525,	 0.006460,	 1910.617767,	 -0.293086,	 693.384921,	 1288.670374,	 505.309135,	 3.781087 
0.351917,	 0.001527,	 0.006466,	 1910.511720,	 -0.354619,	 693.551672,	 1290.118394,	 505.369892,	 3.780423 
0.356057,	 0.001528,	 0.006471,	 1910.416342,	 -0.319064,	 693.672712,	 1291.394628,	 505.413989,	 3.779904 
0.360197,	 0.001529,	 0.006474,	 1910.358912,	 -0.221084,	 693.738286,	 1292.141149,	 505.437878,	 3.779612 
0.364338,	 0.001530,	 0.006475,	 1910.343915,	 -0.088898,	 693.745135,	 1292.290070,	 505.440373,	 3.779563 
0.368478,	 0.001531,	 0.006473,	 1910.364540,	 0.010950,	 693.695971,	 1291.923868,	 505.422463,	 3.779738 
0.372618,	 0.001532,	 0.006471,	 1910.403622,	 0.063897,	 693.621956,	 1291.374862,	 505.395499,	 3.780017 
0.376758,	 0.001533,	 0.006469,	 1910.452761,	 0.092259,	 693.549304,	 1290.785704,	 505.369030,	 3.780312 
0.380898,	 0.001534,	 0.006467,	 1910.516150,	 0.117237,	 693.477621,	 1290.155443,	 505.342912,	 3.780633 
0.385039,	 0.001535,	 0.006463,	 1910.585624,	 0.162381,	 693.401529,	 1289.241495,	 505.315187,	 3.780978 
0.389179,	 0.001535,	 0.006456,	 1910.661619,	 0.319506,	 693.261679,	 1287.687030,	 505.264227,	 3.781510 
0.393319,	 0.001535,	 0.006446,	 1910.818102,	 0.664330,	 692.991749,	 1285.201752,	 505.165852,	 3.782556 
0.397459,	 0.001536,	 0.006431,	 1911.122325,	 1.111998,	 692.545412,	 1281.305861,	 505.003144,	 3.784378 
0.401599,	 0.001536,	 0.006409,	 1911.574497,	 1.573876,	 691.888295,	 1275.820441,	 504.763503,	 3.787071 
0.405740,	 0.001536,	 0.006381,	 1912.193018,	 1.979162,	 691.004511,	 1268.540567,	 504.441019,	 3.790719 
0.409880,	 0.001537,	 0.006345,	 1912.969677,	 2.279819,	 689.895710,	 1259.363819,	 504.036138,	 3.795305 
0.414020,	 0.001537,	 0.006304,	 1913.849824,	 2.429381,	 688.620461,	 1248.814647,	 503.570076,	 3.800566 
0.000000,	 0.001311,	 0.044553,	 1532.900950,	 -0.002036,	 1188.331371,	 15231.486929,	 661.513535,	 2.317263 
0.004140,	 0.001325,	 0.044551,	 1532.900364,	 0.000145,	 1188.332554,	 15230.766744,	 661.513864,	 2.317261 
0.008280,	 0.001347,	 0.044550,	 1532.900508,	 0.000785,	 1188.333149,	 15230.689852,	 661.514030,	 2.317261 
0.012421,	 0.001370,	 0.044550,	 1532.900892,	 0.000400,	 1188.332495,	 15230.560077,	 661.513848,	 2.317262 
0.016561,	 0.001395,	 0.044550,	 1532.902234,	 -0.000292,	 1188.332284,	 15230.655949,	 661.513789,	 2.317264 
0.020701,	 0.001421,	 0.044550,	 1532.905584,	 -0.000355,	 1188.333044,	 15230.716958,	 661.514001,	 2.317269 
0.024841,	 0.001447,	 0.044551,	 1532.913371,	 -0.005697,	 1188.334376,	 15230.877924,	 661.514372,	 2.317279 
0.028981,	 0.001475,	 0.044554,	 1532.901755,	 0.004735,	 1188.338913,	 15231.869510,	 661.515635,	 2.317257 
0.033122,	 0.001504,	 0.044543,	 1532.970983,	 0.082276,	 1188.254197,	 15227.259778,	 661.492054,	 2.317444 
0.037262,	 0.001533,	 0.044511,	 1533.146343,	 0.188603,	 1188.036730,	 15213.567429,	 661.431521,	 2.317922 
0.041402,	 0.001563,	 0.044517,	 1533.027496,	 -0.393558,	 1188.174002,	 15217.128069,	 661.469732,	 2.317608 
0.045542,	 0.001593,	 0.044824,	 1531.042950,	 -2.849791,	 1190.481363,	 15351.832678,	 662.111687,	 2.312368 
0.049682,	 0.001624,	 0.045489,	 1526.882925,	 -4.002325,	 1195.311897,	 15643.034690,	 663.453630,	 2.301424 
0.053823,	 0.001655,	 0.045678,	 1525.462023,	 0.487125,	 1196.993116,	 15729.969653,	 663.920043,	 2.297659 
0.057963,	 0.001686,	 0.044307,	 1533.759284,	 12.386300,	 1187.335457,	 15134.627367,	 661.236277,	 2.319609 
0.062103,	 0.001718,	 0.041140,	 1554.010725,	 25.733304,	 1163.418723,	 13769.937640,	 654.542691,	 2.374519 
0.066243,	 0.001749,	 0.036985,	 1582.480452,	 34.549898,	 1129.305321,	 12016.106296,	 644.875148,	 2.454518 
0.070383,	 0.001781,	 0.032704,	 1614.095477,	 38.276424,	 1090.807683,	 10262.990658,	 633.788052,	 2.547459 
0.074524,	 0.001813,	 0.028787,	 1644.973012,	 39.900840,	 1052.469254,	 8716.242261,	 622.550609,	 2.643089 
0.078664,	 0.001845,	 0.025396,	 1673.676850,	 40.436295,	 1016.137741,	 7424.247963,	 611.710936,	 2.736857 
0.082804,	 0.001877,	 0.022498,	 1700.052585,	 40.369015,	 982.189967,	 6357.359154,	 601.405922,	 2.827594 
0.086944,	 0.001909,	 0.020037,	 1724.105466,	 40.011778,	 950.791555,	 5480.930863,	 591.715044,	 2.914527 
0.091084,	 0.001941,	 0.017943,	 1746.041155,	 39.517488,	 921.801408,	 4758.285382,	 582.624358,	 2.997623 
0.095225,	 0.001973,	 0.016149,	 1766.086728,	 38.925466,	 894.978498,	 4158.026489,	 574.085072,	 3.077097 
0.099365,	 0.002005,	 0.014607,	 1784.445537,	 38.287604,	 870.150193,	 3656.692537,	 566.065992,	 3.153089 
0.103505,	 0.002036,	 0.013275,	 1801.308867,	 37.602838,	 847.125399,	 3235.170951,	 558.526528,	 3.225812 
0.107645,	 0.002068,	 0.012116,	 1816.838975,	 36.879764,	 825.723771,	 2878.260165,	 551.426137,	 3.295479 
0.111785,	 0.002099,	 0.011106,	 1831.163984,	 36.124900,	 805.862679,	 2574.783929,	 544.754059,	 3.362105 
0.115926,	 0.002130,	 0.010226,	 1844.338555,	 35.155700,	 787.489515,	 2316.701929,	 538.508228,	 3.425525 
0.120066,	 0.002161,	 0.009460,	 1856.398734,	 34.016193,	 770.528709,	 2097.128269,	 532.677516,	 3.485618 
0.124206,	 0.002191,	 0.008791,	 1867.471319,	 32.897283,	 754.851836,	 1909.011031,	 527.230846,	 3.542587 
0.128346,	 0.002221,	 0.008202,	 1877.664229,	 31.878404,	 740.343522,	 1746.871394,	 522.139554,	 3.596615 
0.132486,	 0.002251,	 0.007681,	 1887.001519,	 30.842746,	 726.993365,	 1606.444324,	 517.410428,	 3.647498 
0.136627,	 0.002280,	 0.007219,	 1895.506077,	 29.482049,	 714.793295,	 1484.498581,	 513.050587,	 3.695026 
0.140767,	 0.002309,	 0.006820,	 1903.117233,	 27.605172,	 703.848831,	 1381.076926,	 509.107682,	 3.738536 
0.144907,	 0.002338,	 0.006488,	 1909.770145,	 24.823041,	 694.258444,	 1295.948409,	 505.627329,	 3.777350 
0.149047,	 0.002366,	 0.006223,	 1915.333208,	 20.705073,	 686.215840,	 1228.595566,	 502.690089,	 3.810390 
0.153187,	 0.002394,	 0.006033,	 1919.554439,	 15.005750,	 680.106873,	 1180.381511,	 500.447513,	 3.835793 
0.157328,	 0.002422,	 0.005926,	 1922.152332,	 7.592888,	 676.356336,	 1153.054032,	 499.065714,	 3.851532 
0.161468,	 0.002448,	 0.005897,	 1922.863487,	 -1.264389,	 675.523032,	 1146.124891,	 498.758183,	 3.855303 
0.165608,	 0.002475,	 0.005942,	 1921.552133,	 -9.992458,	 677.588220,	 1158.309668,	 499.519995,	 3.846849 
0.169748,	 0.002501,	 0.006053,	 1918.887416,	 -15.687430,	 681.397874,	 1186.644198,	 500.922271,	 3.830837 
0.173888,	 0.002526,	 0.006204,	 1915.878823,	 -16.703569,	 685.617332,	 1223.691137,	 502.470822,	 3.813060 
0.178029,	 0.002550,	 0.006350,	 1912.933671,	 -13.626362,	 689.769955,	 1260.080103,	 503.990198,	 3.795673 
0.182169,	 0.002575,	 0.006456,	 1910.638706,	 -8.833279,	 693.122729,	 1287.342923,	 505.213589,	 3.781884 
0.186309,	 0.002598,	 0.006516,	 1909.348127,	 -4.024199,	 695.009669,	 1302.836837,	 505.900813,	 3.774163 
0.190449,	 0.002621,	 0.006538,	 1908.869873,	 -0.239867,	 695.699264,	 1308.560745,	 506.151730,	 3.771339 
0.194589,	 0.002643,	 0.006533,	 1908.933316,	 1.722597,	 695.599207,	 1307.383391,	 506.115331,	 3.771737 
0.198730,	 0.002664,	 0.006516,	 1909.356966,	 2.099508,	 695.029152,	 1302.995574,	 505.907903,	 3.774122 
0.202870,	 0.002685,	 0.006502,	 1909.756103,	 1.562423,	 694.496639,	 1299.115996,	 505.714060,	 3.776357 
0.207010,	 0.002705,	 0.006492,	 1909.933785,	 0.629862,	 694.248572,	 1296.642929,	 505.623733,	 3.777382 
0.211150,	 0.002724,	 0.006488,	 1909.995295,	 -0.329788,	 694.161726,	 1295.661467,	 505.592107,	 3.777740 
0.215290,	 0.002743,	 0.006490,	 1909.939210,	 -0.962706,	 694.234775,	 1296.250281,	 505.618709,	 3.777430 
0.219431,	 0.002760,	 0.006498,	 1909.759537,	 -1.098736,	 694.466149,	 1298.235542,	 505.702958,	 3.776446 
0.223571,	 0.002777,	 0.006506,	 1909.535445,	 -0.860679,	 694.739184,	 1300.416270,	 505.802359,	 3.775260 
0.227711,	 0.002794,	 0.006510,	 1909.427653,	 -0.495510,	 694.872287,	 1301.361917,	 505.850809,	 3.774686 
0.231851,	 0.002809,	 0.006511,	 1909.402317,	 -0.145223,	 694.906349,	 1301.608416,	 505.863207,	 3.774543 
0.235991,	 0.002824,	 0.006509,	 1909.447017,	 0.152043,	 694.852957,	 1301.166093,	 505.843773,	 3.774776 
0.240132,	 0.002839,	 0.006505,	 1909.544618,	 0.371042,	 694.736039,	 1300.238913,	 505.801214,	 3.775287 
0.244272,	 0.002852,	 0.006501,	 1909.669167,	 0.513905,	 694.580948,	 1299.021811,	 505.744754,	 3.775955 
0.248412,	 0.002866,	 0.006495,	 1909.801659,	 0.578198,	 694.409030,	 1297.567208,	 505.682161,	 3.776684 
0.252552,	 0.002879,	 0.006489,	 1909.938513,	 0.559562,	 694.216395,	 1295.969245,	 505.612016,	 3.777479 
0.256692,	 0.002892,	 0.006484,	 1910.062910,	 0.451493,	 694.038689,	 1294.635883,	 505.547298,	 3.778208 
0.260833,	 0.002902,	 0.006481,	 1910.144900,	 0.245133,	 693.936968,	 1293.819284,	 505.510250,	 3.778647 
0.264973,	 0.002913,	 0.006480,	 1910.168992,	 -0.043550,	 693.920840,	 1293.652558,	 505.504375,	 3.778739 
0.269113,	 0.002924,	 0.006482,	 1910.135703,	 -0.362525,	 693.976799,	 1294.187269,	 505.524757,	 3.778521 
0.273253,	 0.002935,	 0.006486,	 1910.036625,	 -0.641319,	 694.107721,	 1295.282026,	 505.572440,	 3.777968 
0.277393,	 0.002945,	 0.006492,	 1909.876079,	 -0.794852,	 694.293217,	 1296.774393,	 505.639991,	 3.777146 
0.281534,	 0.002955,	 0.006498,	 1909.698787,	 -0.767168,	 694.495936,	 1298.379448,	 505.713804,	 3.776244 
0.285674,	 0.002964,	 0.006503,	 1909.574830,	 -0.558034,	 694.639896,	 1299.513169,	 505.766215,	 3.775608 
0.289814,	 0.002971,	 0.006505,	 1909.522437,	 -0.285511,	 694.701113,	 1300.027164,	 505.788500,	 3.775338 
0.293954,	 0.002978,	 0.006505,	 1909.522695,	 -0.025009,	 694.700382,	 1299.994846,	 505.788234,	 3.775340 