TITLE = "Final State"
VARIABLES = "X", "Y", "rho", "u", "v", "T", "p", "c", "M"
ZONE I=201, J=75, DATAPACKING=POINT
0.0000000000000000e+00,	 0.0000000000000000e+00,	 4.4262645736616028e-02,	 1.5349045115146334e+03,	 6.1860297344298343e-01,	 1.1852792373136201e+03,	 1.5093431359429174e+04,	 6.6066346684586483e+02,	 2.3232776037978993e+00 
3.1028124417654200e-02,	 0.0000000000000000e+00,	 4.4097244987375911e-02,	 1.5360605617112496e+03,	 7.6113127192868191e-01,	 1.1835155825348384e+03,	 1.5014655608596622e+04,	 6.6017176159855080e+02,	 2.3267592460564415e+00 
6.2056248835308400e-02,	 0.0000000000000000e+00,	 4.3759098698047651e-02,	 1.5384275142430538e+03,	 9.6543330629704649e-01,	 1.1799017984744478e+03,	 1.4854025627768406e+04,	 6.5916309632745390e+02,	 2.3339107206412124e+00 
9.3084373252962593e-02,	 0.0000000000000000e+00,	 4.3412378084709512e-02,	 1.5408617376359980e+03,	 1.0524905519652852e+00,	 1.1761796414879209e+03,	 1.4689843603907328e+04,	 6.5812256627436352e+02,	 2.3412995938010619e+00 
1.2411249767061680e-01,	 0.0000000000000000e+00,	 4.3065634766398950e-02,	 1.5433037899946480e+03,	 1.0875634672131311e+00,	 1.1724396697298146e+03,	 1.4526175766463502e+04,	 6.5707539649001035e+02,	 2.3487474670954223e+00 
1.5514062208827101e-01,	 0.0000000000000000e+00,	 4.2722173980311515e-02,	 1.5457305220357798e+03,	 1.1010144323594071e+00,	 1.1687173234553043e+03,	 1.4364574406105261e+04,	 6.5603150202350753e+02,	 2.3561839780420755e+00 
1.8616874650592519e-01,	 0.0000000000000000e+00,	 4.2383095902721407e-02,	 1.5481340482566466e+03,	 1.1061745046462539e+00,	 1.1650248183935414e+03,	 1.4205541445007764e+04,	 6.5499433247659135e+02,	 2.3635844872054039e+00 
2.1719687092357939e-01,	 0.0000000000000000e+00,	 4.2048643202339628e-02,	 1.5505124156930392e+03,	 1.1085544052725571e+00,	 1.1613653202243527e+03,	 1.4049173557879001e+04,	 6.5396481114365997e+02,	 2.3709422671649305e+00 
2.4822499534123360e-01,	 0.0000000000000000e+00,	 4.1718799566113927e-02,	 1.5528655352880423e+03,	 1.1101750276438562e+00,	 1.1577391419747908e+03,	 1.3895444931555106e+04,	 6.5294306247313614e+02,	 2.3782562697726632e+00 
2.7925311975888778e-01,	 0.0000000000000000e+00,	 4.1393479206522393e-02,	 1.5551938264857281e+03,	 1.1116847249564343e+00,	 1.1541458119078948e+03,	 1.3744297552904629e+04,	 6.5192898977830669e+02,	 2.3855270254850214e+00 
3.1028124417654201e-01,	 0.0000000000000000e+00,	 4.1072582549120024e-02,	 1.5574978069006531e+03,	 1.1132500289612910e+00,	 1.1505847015382597e+03,	 1.3595667783612485e+04,	 6.5092245115730020e+02,	 2.3927553919662321e+00 
3.4130936859419619e-01,	 0.0000000000000000e+00,	 4.0756004925521172e-02,	 1.5597780172041548e+03,	 1.1149150145968851e+00,	 1.1470551400584250e+03,	 1.3449490697783940e+04,	 6.4992329157398535e+02,	 2.3999423253352576e+00 
3.7233749301185037e-01,	 0.0000000000000000e+00,	 4.0443649664559260e-02,	 1.5620349518160342e+03,	 1.1166737815446304e+00,	 1.1435565221514839e+03,	 1.3305705670896736e+04,	 6.4893137336399582e+02,	 2.4070886615708718e+00 
4.0336561742950461e-01,	 0.0000000000000000e+00,	 4.0135428152088495e-02,	 1.5642690599615130e+03,	 1.1185102131754072e+00,	 1.1400883063587366e+03,	 1.3164256293997536e+04,	 6.4794657592036367e+02,	 2.4141951172866416e+00 
4.3439374184715879e-01,	 0.0000000000000000e+00,	 3.9831255514509514e-02,	 1.5664807696463790e+03,	 1.1204137322418131e+00,	 1.1366499789285440e+03,	 1.3025088464340022e+04,	 6.4696878554926377e+02,	 2.4212623627586840e+00 
4.6542186626481302e-01,	 0.0000000000000000e+00,	 3.9531064537323843e-02,	 1.5686704175909613e+03,	 1.1223319591039849e+00,	 1.1332411629087260e+03,	 1.2888156119524963e+04,	 6.4599792662890854e+02,	 2.4282907954095996e+00 
4.9644999068246720e-01,	 0.0000000000000000e+00,	 3.9234776833472484e-02,	 1.5708383960735605e+03,	 1.1242752554104694e+00,	 1.1298613902324328e+03,	 1.2753409135743203e+04,	 6.4503389684861907e+02,	 2.4352810078342992e+00 
5.2747811510012144e-01,	 0.0000000000000000e+00,	 3.8942318232804730e-02,	 1.5729850779542544e+03,	 1.1262381436754187e+00,	 1.1265102184513412e+03,	 1.2620799705391501e+04,	 6.4407660038939582e+02,	 2.4422335482916147e+00 
5.5850623951777556e-01,	 0.0000000000000000e+00,	 3.8653612347623906e-02,	 1.5751108484753618e+03,	 1.1282294816951763e+00,	 1.1231871810903167e+03,	 1.2490279663312002e+04,	 6.4312593376946541e+02,	 2.4491490232880007e+00 
5.8953436393542979e-01,	 0.0000000000000000e+00,	 3.8368586765515814e-02,	 1.5772160737879778e+03,	 1.1302451899592159e+00,	 1.1198918371472168e+03,	 1.2361803037910151e+04,	 6.4218179999031202e+02,	 2.4560279951610671e+00 
6.2056248835308403e-01,	 0.0000000000000000e+00,	 3.8087170945389451e-02,	 1.5793011108644773e+03,	 1.1322828220956369e+00,	 1.1166237555426710e+03,	 1.2235325164760598e+04,	 6.4124410412967950e+02,	 2.4628710136899166e+00 
6.5159061277073815e-01,	 0.0000000000000000e+00,	 3.7809284789106751e-02,	 1.5813663668663503e+03,	 1.1343804428485948e+00,	 1.1133824222192247e+03,	 1.2110797992388189e+04,	 6.4031272665258280e+02,	 2.4696788114812058e+00 
6.8261873718839239e-01,	 0.0000000000000000e+00,	 3.7534864721571554e-02,	 1.5834121660994629e+03,	 1.1365087427678522e+00,	 1.1101674490275445e+03,	 1.1988180734627764e+04,	 6.3938758339548031e+02,	 2.4764518659566446e+00 
7.1364686160604662e-01,	 0.0000000000000000e+00,	 3.7263847647826864e-02,	 1.5854388288967345e+03,	 1.1386576018434009e+00,	 1.1069784501316494e+03,	 1.1867433300275618e+04,	 6.3846859018987652e+02,	 2.4831906567486550e+00 
7.4467498602370075e-01,	 0.0000000000000000e+00,	 3.6996168076625612e-02,	 1.5874466885218969e+03,	 1.1408342807612009e+00,	 1.1038150157340619e+03,	 1.1748515088295457e+04,	 6.3755565528237798e+02,	 2.4898957217384861e+00 
7.7570311044135498e-01,	 0.0000000000000000e+00,	 3.6731764989846011e-02,	 1.5894360569379141e+03,	 1.1430313714749862e+00,	 1.1006767658621011e+03,	 1.1631387742964727e+04,	 6.3664869484415988e+02,	 2.4965675431538767e+00 
8.0673123485900922e-01,	 0.0000000000000000e+00,	 3.6470574114037306e-02,	 1.5914072643874281e+03,	 1.1452613026216036e+00,	 1.0975632881852730e+03,	 1.1516012021169498e+04,	 6.3574761502661499e+02,	 2.5032066796132968e+00 
8.3775935927666345e-01,	 0.0000000000000000e+00,	 3.6212536842284676e-02,	 1.5933606148784268e+03,	 1.1475137279504044e+00,	 1.0944742083253402e+03,	 1.1402351352696729e+04,	 6.3485233229029836e+02,	 2.5098136165633846e+00 
8.6878748369431757e-01,	 0.0000000000000000e+00,	 3.5957589946658021e-02,	 1.5952964392525812e+03,	 1.1498048671480676e+00,	 1.0914091059953753e+03,	 1.1290367695294422e+04,	 6.3396274912989429e+02,	 2.5163889452513799e+00 
8.9981560811197181e-01,	 0.0000000000000000e+00,	 3.5705666968038272e-02,	 1.5972150910873527e+03,	 1.1521599129710045e+00,	 1.0883675214125658e+03,	 1.1180022065129131e+04,	 6.3307875584940030e+02,	 2.5229333505319911e+00 
9.3084373252962604e-01,	 0.0000000000000000e+00,	 3.5456704991988289e-02,	 1.5991169134935440e+03,	 1.1545829807194505e+00,	 1.0853490078372638e+03,	 1.1071277208621876e+04,	 6.3220024578776372e+02,	 2.5294474985734374e+00 
9.6187185694728017e-01,	 0.0000000000000000e+00,	 3.5210634149580824e-02,	 1.6010022949919589e+03,	 1.1571079232578863e+00,	 1.0823530428111160e+03,	 1.0964093405707059e+04,	 6.3132708946247453e+02,	 2.5359322288846360e+00 
9.9289998136493440e-01,	 0.0000000000000000e+00,	 3.4967389218164099e-02,	 1.6028716140730505e+03,	 1.1597349553750655e+00,	 1.0793791162406294e+03,	 1.0858433006674941e+04,	 6.3045916014622162e+02,	 2.5423883654194324e+00 
1.0239281057825886e+00,	 0.0000000000000000e+00,	 3.4726909792347757e-02,	 1.6047252402683821e+03,	 1.1624409273550056e+00,	 1.0764267286568536e+03,	 1.0754260434952779e+04,	 6.2959633338769834e+02,	 2.5488167198525873e+00 
1.0549562302002429e+00,	 0.0000000000000000e+00,	 3.4489115384575199e-02,	 1.6065636686754196e+03,	 1.1652877537221014e+00,	 1.0734951766492345e+03,	 1.0651532336104869e+04,	 6.2873842420261337e+02,	 2.5552185605986395e+00 
1.0859843546178971e+00,	 0.0000000000000000e+00,	 3.4253914476943009e-02,	 1.6083874843509811e+03,	 1.1683430992584909e+00,	 1.0705836088570945e+03,	 1.0550201063024542e+04,	 6.2788520309163277e+02,	 2.5615954967204431e+00 
1.1170124790355511e+00,	 0.0000000000000000e+00,	 3.4021210819742506e-02,	 1.6101973360281781e+03,	 1.1716500555186777e+00,	 1.0676910671848400e+03,	 1.0450217099360765e+04,	 6.2703640785583730e+02,	 2.5679493919757439e+00 
1.1480406034532054e+00,	 0.0000000000000000e+00,	 3.3790881345217405e-02,	 1.6119940580128023e+03,	 1.1753319325800473e+00,	 1.0648162910313908e+03,	 1.0351520433969741e+04,	 6.2619168582908799e+02,	 2.5742828002507907e+00 
1.1790687278708596e+00,	 0.0000000000000000e+00,	 3.3562783528068033e-02,	 1.6137786453348367e+03,	 1.1795221221939389e+00,	 1.0619577557908528e+03,	 1.0254043379038128e+04,	 6.2535060462364049e+02,	 2.5805988903880648e+00 
1.2100968522885138e+00,	 0.0000000000000000e+00,	 3.3336763189276579e-02,	 1.6155522221741280e+03,	 1.1843264283525095e+00,	 1.0591137220981991e+03,	 1.0157713571169283e+04,	 6.2451266613641553e+02,	 2.5869013454456247e+00 
1.2411249767061681e+00,	 0.0000000000000000e+00,	 3.3112638602110667e-02,	 1.6173161327672515e+03,	 1.1899010666785697e+00,	 1.0562820887445805e+03,	 1.0062447841118787e+04,	 6.2367726270994956e+02,	 2.5931946973025304e+00 
1.2721531011238223e+00,	 0.0000000000000000e+00,	 3.2890195081639213e-02,	 1.6190719829123193e+03,	 1.1964501723976144e+00,	 1.0534603241467125e+03,	 9.9681501370417136e+03,	 6.2284365616373316e+02,	 2.5994844917529512e+00 
1.3031812255414763e+00,	 0.0000000000000000e+00,	 3.2669193574327196e-02,	 1.6208216064777127e+03,	 1.2041658898416097e+00,	 1.0506455182307482e+03,	 9.8747148618048595e+03,	 6.2201099230097384e+02,	 2.6057771869764101e+00 
1.3342093499591305e+00,	 0.0000000000000000e+00,	 3.2449368651866976e-02,	 1.6225670822406573e+03,	 1.2132427943324360e+00,	 1.0478343533157081e+03,	 9.7820261977936116e+03,	 6.2117829151772048e+02,	 2.6120802320143368e+00 
1.3652374743767848e+00,	 0.0000000000000000e+00,	 3.2230415503327933e-02,	 1.6243108087632138e+03,	 1.2239380749620117e+00,	 1.0450229812797393e+03,	 9.6899532772857128e+03,	 6.2034441150922316e+02,	 2.6184023580345550e+00 
1.3962655987944390e+00,	 0.0000000000000000e+00,	 3.2011990179804731e-02,	 1.6260555112021220e+03,	 1.2365470794603666e+00,	 1.0422070098873207e+03,	 9.5983504444760401e+03,	 6.1950804210007686e+02,	 2.6247536284775079e+00 
1.4272937232120932e+00,	 0.0000000000000000e+00,	 3.1793720804758951e-02,	 1.6278041846800770e+03,	 1.2513406726092202e+00,	 1.0393815916296139e+03,	 9.5070617439386369e+03,	 6.1866773051234100e+02,	 2.6311452583813351e+00 
1.4583218476297475e+00,	 0.0000000000000000e+00,	 3.1575205353880101e-02,	 1.6295601017805452e+03,	 1.2685981677306351e+00,	 1.0365414090277875e+03,	 9.4159203844192016e+03,	 6.1782187594309721e+02,	 2.6375896662597285e+00 
1.4893499720474015e+00,	 0.0000000000000000e+00,	 3.1356011304245562e-02,	 1.6313268095007256e+03,	 1.2886174215519928e+00,	 1.0336806770644303e+03,	 9.3247489417146062e+03,	 6.1696872915703977e+02,	 2.6441004889854876e+00 
1.5203780964650557e+00,	 0.0000000000000000e+00,	 3.1135684926383370e-02,	 1.6331080720335763e+03,	 1.3116770895744176e+00,	 1.0307932332410323e+03,	 9.2333632227222988e+03,	 6.1610641819698048e+02,	 2.6506923975375534e+00 
1.5514062208827100e+00,	 0.0000000000000000e+00,	 3.0913766016612887e-02,	 1.6349077773008844e+03,	 1.3379888383445415e+00,	 1.0278726871094759e+03,	 9.1415782054802130e+03,	 6.1523299203175270e+02,	 2.6573807743935012e+00 
1.5824343453003642e+00,	 0.0000000000000000e+00,	 3.0689788063593008e-02,	 1.6367299156828194e+03,	 1.3677454535049693e+00,	 1.0249124528830223e+03,	 9.0492085401957847e+03,	 6.1434642945172448e+02,	 2.6641816550097390e+00 
1.6134624697180184e+00,	 0.0000000000000000e+00,	 3.0463279318092555e-02,	 1.6385785552423513e+03,	 1.4011435234044047e+00,	 1.0219057881604627e+03,	 8.9560693756218661e+03,	 6.1344464979146380e+02,	 2.6711116558862176e+00 
1.6444905941356727e+00,	 0.0000000000000000e+00,	 3.0233775777958535e-02,	 1.6404577522656064e+03,	 1.4383391228941638e+00,	 1.0188459379237358e+03,	 8.8619815935235893e+03,	 6.1252555530224492e+02,	 2.6781876586645397e+00 
1.6755187185533269e+00,	 0.0000000000000000e+00,	 3.0000838502848366e-02,	 1.6423714325948854e+03,	 1.4794011277219767e+00,	 1.0157263272681037e+03,	 8.7667786225311065e+03,	 6.1158708849104096e+02,	 2.6854263763939521e+00 
1.7065468429709809e+00,	 0.0000000000000000e+00,	 2.9764059761727069e-02,	 1.6443233294507045e+03,	 1.5243400756720171e+00,	 1.0125406626664472e+03,	 8.6703090580240460e+03,	 6.1062726234052536e+02,	 2.6928441250784849e+00 
1.7375749673886351e+00,	 0.0000000000000000e+00,	 2.9523060059808717e-02,	 1.6463169738952438e+03,	 1.5731687594361885e+00,	 1.0092829481184867e+03,	 8.5724358409008018e+03,	 6.0964416506623900e+02,	 2.7004567908092896e+00 
1.7686030918062894e+00,	 0.0000000000000000e+00,	 2.9277512447241732e-02,	 1.6483555424524643e+03,	 1.6257935902691707e+00,	 1.0059477353318812e+03,	 8.4730453136767192e+03,	 6.0863603569451357e+02,	 2.7082792466298198e+00 
1.7996312162239436e+00,	 0.0000000000000000e+00,	 2.9027143281356534e-02,	 1.6504418248553241e+03,	 1.6820711262962442e+00,	 1.0025301785652146e+03,	 8.3720476006036806e+03,	 6.0760128120402817e+02,	 2.7163252169874585e+00 
1.8306593406415979e+00,	 0.0000000000000000e+00,	 2.8771737428386103e-02,	 1.6525781754059187e+03,	 1.7418117788764049e+00,	 9.9902611724141354e+02,	 8.2693784455849946e+03,	 6.0653850232395223e+02,	 2.7246070727672751e+00 
1.8616874650592521e+00,	 0.0000000000000000e+00,	 2.8511147420674298e-02,	 1.6547664455448053e+03,	 1.8047560339063353e+00,	 9.9543219009082031e+02,	 8.1650023471626173e+03,	 6.0544652927266782e+02,	 2.7331355449387411e+00 
1.8927155894769061e+00,	 0.0000000000000000e+00,	 2.8245289692654857e-02,	 1.6570079873748628e+03,	 1.8706216225177847e+00,	 9.9174583373597045e+02,	 8.0589109246767284e+03,	 6.0432442279294457e+02,	 2.7419197053184701e+00 
1.9237437138945603e+00,	 0.0000000000000000e+00,	 2.7974151341298770e-02,	 1.6593036092064440e+03,	 1.9390729764399830e+00,	 9.8796536076525047e+02,	 7.9511248988038624e+03,	 6.0317149961122209e+02,	 2.7509667537047267e+00 
1.9547718383122146e+00,	 0.0000000000000000e+00,	 2.7697783825826917e-02,	 1.6616536001544223e+03,	 2.0097623868159773e+00,	 9.8408992461553453e+02,	 7.8416913471942971e+03,	 6.0198732373794019e+02,	 2.7602820691229675e+00 
1.9857999627298688e+00,	 0.0000000000000000e+00,	 2.7416305144696788e-02,	 1.6640577199622207e+03,	 2.0823112587418082e+00,	 9.8011954234325844e+02,	 7.7306838187600479e+03,	 6.0077171559484066e+02,	 2.7698691193535403e+00 
2.0168280871475228e+00,	 0.0000000000000000e+00,	 2.7129896244573765e-02,	 1.6665152174169298e+03,	 2.1563190521982598e+00,	 9.7605507027425688e+02,	 7.6182003886383973e+03,	 5.9952474697544585e+02,	 2.7797294788315434e+00 
2.0478562115651773e+00,	 0.0000000000000000e+00,	 2.6838785016726652e-02,	 1.6690249100678834e+03,	 2.2314273905870285e+00,	 9.7189807833673717e+02,	 7.5043574525178410e+03,	 5.9824670495962721e+02,	 2.7898630914309490e+00 
2.0788843359828313e+00,	 0.0000000000000000e+00,	 2.6543250726512747e-02,	 1.6715851675785348e+03,	 2.3072677116224032e+00,	 9.6765088370184867e+02,	 7.3892905655882469e+03,	 5.9693810468815263e+02,	 2.8002681463887233e+00 
2.1099124604004857e+00,	 0.0000000000000000e+00,	 2.6243627634420737e-02,	 1.6741939025645586e+03,	 2.3834307010607105e+00,	 9.6331657248009537e+02,	 7.2731548864269143e+03,	 5.9559969878233630e+02,	 2.8109409768789440e+00 
2.1409405848181398e+00,	 0.0000000000000000e+00,	 2.5940296116979348e-02,	 1.6768486230807587e+03,	 2.4594956267361505e+00,	 9.5889891903178204e+02,	 7.1561213400483912e+03,	 5.9423245533788793e+02,	 2.8218762064127159e+00 
2.1719687092357942e+00,	 0.0000000000000000e+00,	 2.5633665579640794e-02,	 1.6795465229337447e+03,	 2.5350847648614598e+00,	 9.5440224159715751e+02,	 7.0383701423976891e+03,	 5.9283751599580967e+02,	 2.8330670560258944e+00 
2.2029968336534482e+00,	 0.0000000000000000e+00,	 2.5324172354434855e-02,	 1.6822845081912146e+03,	 2.6098414368641736e+00,	 9.4983136350443897e+02,	 6.9200893828116396e+03,	 5.9141618641540151e+02,	 2.8445053944125891e+00 
2.2340249580711022e+00,	 0.0000000000000000e+00,	 2.5012282762429290e-02,	 1.6850592060366180e+03,	 2.6833912556574733e+00,	 9.4519160351418054e+02,	 6.8014752519274280e+03,	 5.8996993579655248e+02,	 2.8561817143415538e+00 
2.2650530824887567e+00,	 0.0000000000000000e+00,	 2.4698476584592774e-02,	 1.6878670579335026e+03,	 2.7553922501508561e+00,	 9.4048862452508445e+02,	 6.6827259409227245e+03,	 5.8850035215775824e+02,	 2.8680854663737962e+00 
2.2960812069064107e+00,	 0.0000000000000000e+00,	 2.4383230643222224e-02,	 1.6907044078392337e+03,	 2.8255771947689743e+00,	 9.3572828917389438e+02,	 6.5640358384529200e+03,	 5.8700909915776469e+02,	 2.8802053858719643e+00 
2.3271093313240652e+00,	 0.0000000000000000e+00,	 2.4067023366493502e-02,	 1.6935675032724043e+03,	 2.8937076853914290e+00,	 9.3091666069171720e+02,	 6.4455965780111865e+03,	 5.8549791795241561e+02,	 2.8925294582679717e+00 
2.3581374557417192e+00,	 0.0000000000000000e+00,	 2.3750337544199904e-02,	 1.6964525081314473e+03,	 2.9595429649027083e+00,	 9.2605998369529163e+02,	 6.3275974433436031e+03,	 5.8396862274667387e+02,	 2.9050449349192258e+00 
2.3891655801593732e+00,	 0.0000000000000000e+00,	 2.3433645885389473e-02,	 1.6993555837640179e+03,	 3.0228811560766333e+00,	 9.2116454930849807e+02,	 6.2102204393556194e+03,	 5.8242305969396978e+02,	 2.9177386507761094e+00 
2.4201937045770276e+00,	 0.0000000000000000e+00,	 2.3117404568778893e-02,	 1.7022729329721737e+03,	 3.0835660445255257e+00,	 9.1623662160729441e+02,	 6.0936380906478671e+03,	 5.8086308454692744e+02,	 2.9305971942523854e+00 
2.4512218289946817e+00,	 0.0000000000000000e+00,	 2.2802054330103811e-02,	 1.7052008126367728e+03,	 3.1414658523663945e+00,	 9.1128241626846398e+02,	 5.9780136723335208e+03,	 5.7929055649032193e+02,	 2.9436069469233446e+00 
2.4822499534123361e+00,	 0.0000000000000000e+00,	 2.2488017568529910e-02,	 1.7081355618411587e+03,	 3.1964715491062208e+00,	 9.0630805254472170e+02,	 5.8635002509147726e+03,	 5.7770732331502086e+02,	 2.9567541966587942e+00 
2.5132780778299901e+00,	 0.0000000000000000e+00,	 2.2175696224201819e-02,	 1.7110736251696976e+03,	 3.2484932491201537e+00,	 9.0131951279537668e+02,	 5.7502400411222507e+03,	 5.7611520870183176e+02,	 2.9700252362260779e+00 
2.5443062022476446e+00,	 0.0000000000000000e+00,	 2.1865466268239445e-02,	 1.7140115858572017e+03,	 3.2974731107439501e+00,	 8.9632258464232495e+02,	 5.6383628353921104e+03,	 5.7451599366240384e+02,	 2.9834065137554138e+00 
2.5753343266652986e+00,	 0.0000000000000000e+00,	 2.1557677566829435e-02,	 1.7169461754734480e+03,	 3.3433791149673953e+00,	 8.9132284254863180e+02,	 5.5279861477719387e+03,	 5.7291141027509514e+02,	 2.9968846839647192e+00 
2.6063624510829526e+00,	 0.0000000000000000e+00,	 2.1252656662407547e-02,	 1.7198742724878612e+03,	 3.3861883437136369e+00,	 8.8632564807263770e+02,	 5.4192162378031016e+03,	 5.7130314127174381e+02,	 3.0104466117904414e+00 
2.6373905755006071e+00,	 0.0000000000000000e+00,	 2.0950698427879763e-02,	 1.7227929396937204e+03,	 3.4259189663900083e+00,	 8.8133608340796059e+02,	 5.3121458956057395e+03,	 5.6969279799740809e+02,	 3.0240795602659176e+00 
2.6684186999182611e+00,	 0.0000000000000000e+00,	 2.0652077802046101e-02,	 1.7256993862922468e+03,	 3.4625793640354710e+00,	 8.7635901376199968e+02,	 5.2068581680812094e+03,	 5.6808193970036859e+02,	 3.0377710317549198e+00 
2.6994468243359155e+00,	 0.0000000000000000e+00,	 2.0357046129093316e-02,	 1.7285909893441428e+03,	 3.4961804644239702e+00,	 8.7139904784503142e+02,	 5.1034254996880791e+03,	 5.6647205998552386e+02,	 3.0515088864286986e+00 
2.7304749487535696e+00,	 0.0000000000000000e+00,	 2.0065823323483757e-02,	 1.7314653247284552e+03,	 3.5267686946115262e+00,	 8.6646048195882850e+02,	 5.0019077920530244e+03,	 5.6486456764820718e+02,	 3.0652815129070872e+00 
2.7615030731712240e+00,	 0.0000000000000000e+00,	 1.9778610466273674e-02,	 1.7343201221949193e+03,	 3.5543745201741070e+00,	 8.6154737425320673e+02,	 4.9023563630795879e+03,	 5.6326080969481711e+02,	 3.0790776396438164e+00 
2.7925311975888780e+00,	 0.0000000000000000e+00,	 1.9495579568191979e-02,	 1.7371533043356906e+03,	 3.5790582620301699e+00,	 8.5666347470218727e+02,	 4.8048113238209435e+03,	 5.6166204743076048e+02,	 3.0928865484971997e+00 
2.8235593220065320e+00,	 0.0000000000000000e+00,	 1.9216881051376488e-02,	 1.7399629575727467e+03,	 3.6008824566123128e+00,	 8.5181227229794422e+02,	 4.7093040631287613e+03,	 5.6006947065118300e+02,	 3.1066979630026577e+00 
2.8545874464241865e+00,	 0.0000000000000000e+00,	 1.8942646264603971e-02,	 1.7427473242215260e+03,	 3.6199041619026917e+00,	 8.4699700593533134e+02,	 4.6158582337527087e+03,	 5.5848420008753635e+02,	 3.1205020364786700e+00 
2.8856155708418405e+00,	 0.0000000000000000e+00,	 1.8672979958662683e-02,	 1.7455048270147140e+03,	 3.6362126396457146e+00,	 8.4222061926972788e+02,	 4.5244879737813944e+03,	 5.5690727136019245e+02,	 3.1342895024560913e+00 
2.9166436952594950e+00,	 0.0000000000000000e+00,	 1.8407969687204699e-02,	 1.7482340314061548e+03,	 3.6498949561147467e+00,	 8.3748582337314679e+02,	 4.4352008535539817e+03,	 5.5533965439227916e+02,	 3.1480515169935837e+00 
2.9476718196771490e+00,	 0.0000000000000000e+00,	 1.8147684759011691e-02,	 1.7509336483229717e+03,	 3.6610453976664137e+00,	 8.3279508952947242e+02,	 4.3479978414064881e+03,	 5.5378224992480591e+02,	 3.1617796995398599e+00 
2.9786999440948030e+00,	 0.0000000000000000e+00,	 1.7892179610417738e-02,	 1.7536025209236714e+03,	 3.6697542313679614e+00,	 8.2815067006068057e+02,	 4.2628744718380040e+03,	 5.5223589531984896e+02,	 3.1754660926938136e+00 
3.0097280685124574e+00,	 0.0000000000000000e+00,	 1.7641495962431950e-02,	 1.7562396170176157e+03,	 3.6761006060212331e+00,	 8.2355460938845567e+02,	 4.1798216328822364e+03,	 5.5070136720157927e+02,	 3.1891031491019994e+00 
3.0407561929301115e+00,	 0.0000000000000000e+00,	 1.7395658376629351e-02,	 1.7588440420144018e+03,	 3.6801766056719236e+00,	 8.1900871940039838e+02,	 4.0988245909161315e+03,	 5.4917937218083239e+02,	 3.2026838247701184e+00 
3.0717843173477659e+00,	 0.0000000000000000e+00,	 1.7154679005530790e-02,	 1.7614150179277278e+03,	 3.6820709320095437e+00,	 8.1451461415502376e+02,	 4.0198645010207588e+03,	 5.4767055738518479e+02,	 3.2162014968327286e+00 
3.1028124417654199e+00,	 0.0000000000000000e+00,	 1.6918558950709761e-02,	 1.7639518765482803e+03,	 3.6818667171671793e+00,	 8.1007372006704531e+02,	 3.9429189484509338e+03,	 5.4617551291179188e+02,	 3.2296499520618940e+00 
3.1338405661830744e+00,	 0.0000000000000000e+00,	 1.6687285087664989e-02,	 1.7664540658593228e+03,	 3.6796622894766631e+00,	 8.0568726295798831e+02,	 3.8679613070693085e+03,	 5.4469476651453999e+02,	 3.2430234453528728e+00 
3.1648686906007284e+00,	 0.0000000000000000e+00,	 1.6460834110574661e-02,	 1.7689211305557576e+03,	 3.6755584961005932e+00,	 8.0135630070336083e+02,	 3.7949620005194383e+03,	 5.4322879367565804e+02,	 3.2563166197765177e+00 
3.1958968150183824e+00,	 0.0000000000000000e+00,	 1.6239176295261282e-02,	 1.7713526973556955e+03,	 3.6696445316124295e+00,	 7.9708174773203507e+02,	 3.7238896107218916e+03,	 5.4177802509019011e+02,	 3.2695244481146672e+00 
3.2269249394360369e+00,	 0.0000000000000000e+00,	 1.6022269880170643e-02,	 1.7737484912821023e+03,	 3.6620310127652287e+00,	 7.9286434508731543e+02,	 3.6547095527358488e+03,	 5.4034283573735354e+02,	 3.2826423415431796e+00 
3.2579530638536909e+00,	 0.0000000000000000e+00,	 1.5810069978108118e-02,	 1.7761083081087845e+03,	 3.6528250392855393e+00,	 7.8870470789401361e+02,	 3.5873864454286499e+03,	 5.3892356024088485e+02,	 3.2956660191176326e+00 
3.2889811882713453e+00,	 0.0000000000000000e+00,	 1.5602525797985593e-02,	 1.7784320218317198e+03,	 3.6421326963844587e+00,	 7.8460331114334315e+02,	 3.5218834797503259e+03,	 5.3752048736310678e+02,	 3.3085915664307146e+00 
3.3200093126889993e+00,	 0.0000000000000000e+00,	 1.5399579938505664e-02,	 1.7807195764788607e+03,	 3.6300291044289752e+00,	 7.8056050343900665e+02,	 3.4581623970500955e+03,	 5.3613386403233278e+02,	 3.3214154073797877e+00 
3.3510374371066538e+00,	 0.0000000000000000e+00,	 1.5201171423256379e-02,	 1.7829709727543986e+03,	 3.6165662339495155e+00,	 7.7657652968248510e+02,	 3.3961843381058611e+03,	 5.3476390252951205e+02,	 3.3341342454606773e+00 
3.3820655615243078e+00,	 0.0000000000000000e+00,	 1.5007233097425493e-02,	 1.7851862747906039e+03,	 3.6018124624542658e+00,	 7.7265151839934481e+02,	 3.3359092537212650e+03,	 5.3341077559734583e+02,	 3.3467451164948252e+00 
3.4130936859419618e+00,	 0.0000000000000000e+00,	 1.4817695314932055e-02,	 1.7873655952945155e+03,	 3.5858330003976091e+00,	 7.6878550743292772e+02,	 3.2772968886740086e+03,	 5.3207462476824151e+02,	 3.3592453183399194e+00 
3.4441218103596163e+00,	 0.0000000000000000e+00,	 1.4632486466051279e-02,	 1.7895090936950239e+03,	 3.5686856800763636e+00,	 7.6497844680042908e+02,	 3.2203069378958676e+03,	 5.3075556091222916e+02,	 3.3716324121009436e+00 
3.4751499347772703e+00,	 0.0000000000000000e+00,	 1.4451528756946542e-02,	 1.7916169861394128e+03,	 3.5504475627295546e+00,	 7.6123018031053130e+02,	 3.1648980678566018e+03,	 5.2945365742173954e+02,	 3.3839042926281651e+00 
3.5061780591949248e+00,	 0.0000000000000000e+00,	 1.4274739850738998e-02,	 1.7936895335379713e+03,	 3.5312102376409182e+00,	 7.5754046642715753e+02,	 3.1110284069713402e+03,	 5.2816895699311340e+02,	 3.3960591316593667e+00 
3.5372061836125788e+00,	 0.0000000000000000e+00,	 1.4102039799928696e-02,	 1.7957270180252494e+03,	 3.5110423685107746e+00,	 7.5390901994040064e+02,	 3.0586572481655126e+03,	 5.2690148579521497e+02,	 3.4080952490443193e+00 
3.5682343080302332e+00,	 0.0000000000000000e+00,	 1.3933346430780822e-02,	 1.7977297588209628e+03,	 3.4900163291462523e+00,	 7.5033548345758572e+02,	 3.0077439198455027e+03,	 5.2565124327285935e+02,	 3.4200112136899046e+00 
3.5992624324478872e+00,	 0.0000000000000000e+00,	 1.3768576965507082e-02,	 1.7996981048995312e+03,	 3.4681999081241166e+00,	 7.4681944027176564e+02,	 2.9582481970824911e+03,	 5.2441820634218993e+02,	 3.4318058086407266e+00 
3.6302905568655413e+00,	 0.0000000000000000e+00,	 1.3607648533120856e-02,	 1.8016324325232517e+03,	 3.4456539008298046e+00,	 7.4336041860075034e+02,	 2.9101304264694977e+03,	 5.2320233062088289e+02,	 3.4434780237298717e+00 
3.6613186812831957e+00,	 0.0000000000000000e+00,	 1.3450475670560505e-02,	 1.8035331504230162e+03,	 3.4224496995532023e+00,	 7.3995788210833496e+02,	 2.8633509520898510e+03,	 5.2200354684779927e+02,	 3.4550270943428703e+00 
3.6923468057008497e+00,	 0.0000000000000000e+00,	 1.3296973277355364e-02,	 1.8054006874522588e+03,	 3.3986528204207676e+00,	 7.3661125193965654e+02,	 2.8178708339959981e+03,	 5.2082176840540308e+02,	 3.4664524333263445e+00 
3.7233749301185042e+00,	 0.0000000000000000e+00,	 1.3147058053186285e-02,	 1.8072354883962553e+03,	 3.3743141156380707e+00,	 7.3331991419955853e+02,	 2.7736521676805937e+03,	 5.1965689379768753e+02,	 3.4777536102718134e+00 
3.7544030545361582e+00,	 0.0000000000000000e+00,	 1.3000645351225503e-02,	 1.8090380227919750e+03,	 3.3494907914426633e+00,	 7.3008320404591086e+02,	 2.7306573429978707e+03,	 5.1850880086529230e+02,	 3.4889304108515455e+00 
3.7854311789538122e+00,	 0.0000000000000000e+00,	 1.2857649760268788e-02,	 1.8108087793772972e+03,	 3.3242451927523162e+00,	 7.2690041560352574e+02,	 2.6888491997787287e+03,	 5.1737735012078463e+02,	 3.4999828079875641e+00 
3.8164593033714667e+00,	 0.0000000000000000e+00,	 1.2717984199231307e-02,	 1.8125482645588772e+03,	 3.2986548675047764e+00,	 7.2377080466921461e+02,	 2.6481908410245355e+03,	 5.1626238556586634e+02,	 3.5109109569916042e+00 
3.8474874277891207e+00,	 0.0000000000000000e+00,	 1.2581565375050072e-02,	 1.8142569846718334e+03,	 3.2727755347726486e+00,	 7.2069362081870895e+02,	 2.6086468756546237e+03,	 5.1516374603547320e+02,	 3.5217150867951341e+00 
3.8785155522067751e+00,	 0.0000000000000000e+00,	 1.2448314114031366e-02,	 1.8159354492483367e+03,	 3.2466363026746246e+00,	 7.1766810164621791e+02,	 2.5701834307303220e+03,	 5.1408126313000457e+02,	 3.5323955213877301e+00 
3.9095436766244291e+00,	 0.0000000000000000e+00,	 1.2318149349995006e-02,	 1.8175841892234689e+03,	 3.2202816175081881e+00,	 7.1469343991438132e+02,	 2.5327667641504472e+03,	 5.1301474940109597e+02,	 3.5429527983153926e+00 
3.9405718010420836e+00,	 0.0000000000000000e+00,	 1.2190989906155508e-02,	 1.8192037468750243e+03,	 3.1937607328602513e+00,	 7.1176880174545818e+02,	 2.4963636909502266e+03,	 5.1196400475133242e+02,	 3.5533876081978852e+00 
3.9715999254597376e+00,	 0.0000000000000000e+00,	 1.2066755956915195e-02,	 1.8207946693275899e+03,	 3.1671184303343973e+00,	 7.0889333845943975e+02,	 2.4609419088990257e+03,	 5.1092882063046380e+02,	 3.5637007549234188e+00 
4.0026280498773916e+00,	 0.0000000000000000e+00,	 1.1945370425314133e-02,	 1.8223575047688296e+03,	 3.1403840422579004e+00,	 7.0606619357492684e+02,	 2.4264702848166598e+03,	 5.0990898254032112e+02,	 3.5738931319212330e+00 
4.0336561742950456e+00,	 0.0000000000000000e+00,	 1.1826756596612933e-02,	 1.8238928093587742e+03,	 3.1135903312678019e+00,	 7.0328649037046898e+02,	 2.3929183015047911e+03,	 5.0890426553908185e+02,	 3.5839657681968431e+00 
4.0646842987127005e+00,	 0.0000000000000000e+00,	 1.1710836182456438e-02,	 1.8254011487608363e+03,	 3.0867911533592576e+00,	 7.0055332916054022e+02,	 2.3602556428198031e+03,	 5.0791443321637860e+02,	 3.5939198402247667e+00 
4.0957124231303546e+00,	 0.0000000000000000e+00,	 1.1597533297532386e-02,	 1.8268830832816177e+03,	 3.0600317166392834e+00,	 6.9786581442863167e+02,	 2.3284530751607626e+03,	 5.0693924750451345e+02,	 3.6037565744843123e+00 