TITLE = "Final State"
VARIABLES = "X", "Y", "rho", "u", "v", "T", "p", "c", "M"
ZONE I=101, J=101, DATAPACKING=POINT
0.000000,	 0.000000,	 0.044550,	 1532.900000,	 0.000000,	 1188.333000,	 15230.557603,	 661.513989,	 2.317260 
0.030000,	 0.000000,	 0.044550,	 1532.900000,	 0.000000,	 1188.333000,	 15230.557603,	 661.513989,	 2.317260 
0.060000,	 0.000000,	 0.044550,	 1532.900000,	 0.000000,	 1188.333000,	 15230.557603,	 661.513989,	 2.317260 
0.090000,	 0.000000,	 0.044550,	 1532.900000,	 0.000000,	 1188.333000,	 15230.557603,	 661.513989,	 2.317260 
0.120000,	 0.000000,	 0.044550,	 1532.900000,	 0.000000,	 1188.333000,	 15230.557603,	 661.513989,	 2.317260 
0.150000,	 0.000000,	 0.044550,	 1532.900000,	 -0.000000,	 1188.333000,	 15230.557603,	 661.513989,	 2.317260 
0.180000,	 0.000000,	 0.044550,	 1532.900000,	 -0.000000,	 1188.333000,	 15230.557603,	 661.513989,	 2.317260 
0.210000,	 0.000000,	 0.044550,	 1532.900000,	 -0.000000,	 1188.333000,	 15230.557603,	 661.513989,	 2.317260 
0.240000,	 0.000000,	 0.044550,	 1532.900000,	 0.000000,	 1188.333000,	 15230.557603,	 661.513989,	 2.317260 
0.270000,	 0.000000,	 0.044550,	 1532.900000,	 0.000000,	 1188.333000,	 15230.557603,	 661.513989,	 2.317260 
0.300000,	 0.000000,	 0.044550,	 1532.900000,	 0.000000,	 1188.333000,	 15230.557603,	 661.513989,	 2.317260 
0.330000,	 0.000000,	 0.044550,	 1532.900000,	 0.000000,	 1188.333000,	 15230.557603,	 661.513989,	 2.317260 
0.360000,	 0.000000,	 0.044550,	 1532.900000,	 0.000000,	 1188.333000,	 15230.557603,	 661.513989,	 2.317260 
0.390000,	 0.000000,	 0.044550,	 1532.900000,	 0.000000,	 1188.333000,	 15230.557603,	 661.513989,	 2.317260 
0.420000,	 0.000000,	 0.044550,	 1532.900000,	 0.000000,	 1188.333000,	 15230.557603,	 661.513989,	 2.317260 
0.450000,	 0.000000,	 0.044550,	 1532.900000,	 0.000000,	 1188.333000,	 15230.557603,	 661.513989,	 2.317260 
0.480000,	 0.000000,	 0.044550,	 1532.900000,	 0.000000,	 1188.333000,	 15230.557603,	 661.513989,	 2.317260 
0.510000,	 0.000000,	 0.044550,	 1532.900000,	 0.000000,	 1188.333000,	 15230.557603,	 661.513989,	 2.317260 
0.540000,	 0.000000,	 0.044550,	 1532.900000,	 0.000000,	 1188.333000,	 15230.557603,	 661.513989,	 2.317260 
0.570000,	 0.000000,	 0.044550,	 1532.900000,	 0.000000,	 1188.333000,	 15230.557603,	 661.513989,	 2.317260 
0.600000,	 0.000000,	 0.044550,	 1532.900000,	 0.000000,	 1188.333000,	 15230.557603,	 661.513989,	 2.317260 
0.630000,	 0.000000,	 0.044550,	 1532.900000,	 0.000000,	 1188.333000,	 15230.557603,	 661.513989,	 2.317260 
0.660000,	 0.000000,	 0.044550,	 1532.900000,	 0.000000,	 1188.333000,	 15230.557603,	 661.513989,	 2.317260 
0.690000,	 0.000000,	 0.044550,	 1532.900000,	 0.000000,	 1188.333000,	 15230.557603,	 661.513989,	 2.317260 
0.720000,	 0.000000,	 0.044550,	 1532.900000,	 0.000000,	 1188.333000,	 15230.557603,	 661.513989,	 2.317260 
0.750000,	 0.000000,	 0.044550,	 1532.900000,	 0.000000,	 1188.333000,	 15230.557603,	 661.513989,	 2.317260 
0.780000,	 0.000000,	 0.044550,	 1532.900000,	 0.000000,	 1188.333000,	 15230.557603,	 661.513989,	 2.317260 
0.810000,	 0.000000,	 0.044550,	 1532.900000,	 0.000000,	 1188.333000,	 15230.557603,	 661.513989,	 2.317260 
0.840000,	 0.000000,	 0.044550,	 1532.900000,	 0.000000,	 1188.333000,	 15230.557603,	 661.513989,	 2.317260 
0.870000,	 0.000000,	 0.044550,	 1532.900000,	 0.000000,	 1188.333000,	 15230.557603,	 661.513989,	 2.317260 
0.900000,	 0.000000,	 0.044550,	 1532.900000,	 0.000000,	 1188.333000,	 15230.557603,	 661.513989,	 2.317260 
0.930000,	 0.000000,	 0.044550,	 1532.900000,	 0.000000,	 1188.333000,	 15230.557603,	 661.513989,	 2.317260 
0.960000,	 0.000000,	 0.044550,	 1532.900000,	 0.000000,	 1188.333000,	 15230.557603,	 661.513989,	 2.317260 
0.990000,	 0.000000,	 0.044440,	 1522.736127,	 46.486100,	 1189.055278,	 15202.234061,	 661.714995,	 2.302268 
1.020000,	 0.005000,	 0.047328,	 1475.151741,	 213.373156,	 1220.463277,	 16617.741585,	 670.397385,	 2.223313 
1.050000,	 0.012500,	 0.057591,	 1399.067836,	 309.953879,	 1289.865055,	 21371.057634,	 689.194959,	 2.079224 
1.080000,	 0.020000,	 0.062884,	 1371.724222,	 335.803313,	 1314.618960,	 23783.298533,	 695.776729,	 2.029716 
1.110000,	 0.027500,	 0.063347,	 1371.363558,	 339.014656,	 1314.333200,	 23953.008845,	 695.701104,	 2.030536 
1.140000,	 0.035000,	 0.063134,	 1373.524900,	 338.294682,	 1313.269104,	 23853.384051,	 695.419424,	 2.034128 
1.170000,	 0.042500,	 0.063268,	 1373.603026,	 339.261489,	 1313.492662,	 23907.737658,	 695.478613,	 2.034397 
1.200000,	 0.050000,	 0.063334,	 1373.882104,	 340.350437,	 1313.590310,	 23934.796424,	 695.504464,	 2.035087 
1.230000,	 0.057500,	 0.063401,	 1374.109069,	 340.979485,	 1313.771736,	 23963.317217,	 695.552492,	 2.035480 
1.260000,	 0.065000,	 0.063451,	 1374.332880,	 341.520991,	 1313.913677,	 23984.656227,	 695.590065,	 2.035870 
1.290000,	 0.072500,	 0.063490,	 1374.547742,	 342.001228,	 1314.005854,	 24001.102036,	 695.614464,	 2.036265 
1.320000,	 0.080000,	 0.063515,	 1374.831054,	 342.384535,	 1313.859211,	 24007.973136,	 695.575647,	 2.036907 
1.350000,	 0.087500,	 0.063534,	 1375.095100,	 342.606195,	 1313.860505,	 24015.196536,	 695.575990,	 2.037352 
1.380000,	 0.095000,	 0.063575,	 1375.234202,	 342.765387,	 1313.887466,	 24031.216884,	 695.583127,	 2.037580 
1.410000,	 0.102500,	 0.063595,	 1375.411558,	 343.002500,	 1313.931260,	 24039.587099,	 695.594719,	 2.037876 
1.440000,	 0.110000,	 0.063605,	 1375.635028,	 343.203952,	 1313.863704,	 24042.193287,	 695.576837,	 2.038310 
1.470000,	 0.117500,	 0.063616,	 1375.864044,	 343.343043,	 1313.700534,	 24043.132334,	 695.533643,	 2.038805 
1.500000,	 0.125000,	 0.063626,	 1376.055940,	 343.431989,	 1313.652825,	 24046.285523,	 695.521013,	 2.039140 
1.530000,	 0.132500,	 0.063650,	 1376.167411,	 343.512014,	 1313.643809,	 24054.965251,	 695.518627,	 2.039331 
1.560000,	 0.140000,	 0.063660,	 1376.309543,	 343.639723,	 1313.625952,	 24058.354045,	 695.513899,	 2.039587 
1.590000,	 0.147500,	 0.063661,	 1376.486649,	 343.731738,	 1313.560443,	 24057.800391,	 695.496557,	 2.039917 
1.620000,	 0.155000,	 0.063667,	 1376.636205,	 343.810034,	 1313.480050,	 24058.639952,	 695.475273,	 2.040216 
1.650000,	 0.162500,	 0.063671,	 1376.790738,	 343.887517,	 1313.361391,	 24057.980263,	 695.443858,	 2.040550 
1.680000,	 0.170000,	 0.063681,	 1376.887198,	 343.914447,	 1313.406101,	 24062.499323,	 695.455696,	 2.040660 
1.710000,	 0.177500,	 0.063694,	 1376.947097,	 343.964213,	 1313.485820,	 24068.757688,	 695.476801,	 2.040699 
1.740000,	 0.185000,	 0.063695,	 1377.041487,	 344.033214,	 1313.571772,	 24070.832314,	 695.499556,	 2.040787 
1.770000,	 0.192500,	 0.063686,	 1377.183414,	 344.103553,	 1313.617380,	 24068.120690,	 695.511630,	 2.040975 
1.800000,	 0.200000,	 0.063676,	 1377.327933,	 344.154763,	 1313.655604,	 24065.011912,	 695.521749,	 2.041164 
1.830000,	 0.207500,	 0.063673,	 1377.434949,	 344.184159,	 1313.708816,	 24065.021003,	 695.535836,	 2.041282 
1.860000,	 0.215000,	 0.063679,	 1377.495331,	 344.204534,	 1313.802889,	 24068.854551,	 695.560738,	 2.041301 
1.890000,	 0.222500,	 0.063688,	 1377.545092,	 344.228098,	 1313.861312,	 24073.227360,	 695.576203,	 2.041333 
1.920000,	 0.230000,	 0.063689,	 1377.621925,	 344.269803,	 1313.901329,	 24074.506796,	 695.586796,	 2.041424 
1.950000,	 0.237500,	 0.063689,	 1377.699019,	 344.298660,	 1313.954625,	 24075.627512,	 695.600904,	 2.041500 
1.980000,	 0.245000,	 0.060792,	 1393.391463,	 320.184513,	 1303.759887,	 22801.993921,	 692.897128,	 2.063373 
2.010000,	 0.250000,	 0.046080,	 1483.183180,	 181.013699,	 1234.984762,	 16372.204706,	 674.373899,	 2.215667 
2.040000,	 0.250000,	 0.031390,	 1585.396442,	 -34.104393,	 1129.902973,	 10203.769383,	 645.045766,	 2.458373 
2.070000,	 0.250000,	 0.032988,	 1576.338444,	 -18.904715,	 1137.044412,	 10791.024457,	 647.081029,	 2.436251 
2.100000,	 0.250000,	 0.034669,	 1569.110017,	 -5.306602,	 1140.964488,	 11379.976288,	 648.195508,	 2.420750 
2.130000,	 0.250000,	 0.035413,	 1563.886106,	 1.951151,	 1145.150067,	 11666.855857,	 649.383359,	 2.408265 
2.160000,	 0.250000,	 0.035565,	 1562.799552,	 0.657388,	 1145.895146,	 11724.649010,	 649.594581,	 2.405808 
2.190000,	 0.250000,	 0.035826,	 1560.769943,	 -0.210465,	 1148.323990,	 11835.783201,	 650.282659,	 2.400141 
2.220000,	 0.250000,	 0.036122,	 1558.495920,	 -0.009039,	 1151.043068,	 11961.585204,	 651.052094,	 2.393811 
2.250000,	 0.250000,	 0.036400,	 1556.359070,	 -0.025936,	 1153.594195,	 12080.451924,	 651.773178,	 2.387884 
2.280000,	 0.250000,	 0.036668,	 1554.310857,	 -0.023843,	 1156.036185,	 12195.123442,	 652.462668,	 2.382222 
2.310000,	 0.250000,	 0.036922,	 1552.370672,	 -0.031164,	 1158.346119,	 12304.350909,	 653.114202,	 2.376875 
2.340000,	 0.250000,	 0.037166,	 1550.518548,	 -0.024057,	 1160.548390,	 12409.163524,	 653.734764,	 2.371785 
2.370000,	 0.250000,	 0.037403,	 1548.729792,	 -0.020286,	 1162.672677,	 12510.942503,	 654.332794,	 2.366884 
2.400000,	 0.250000,	 0.037631,	 1547.010361,	 -0.020854,	 1164.712259,	 12609.268441,	 654.906464,	 2.362185 
2.430000,	 0.250000,	 0.037851,	 1545.351392,	 -0.014263,	 1166.677900,	 12704.616976,	 655.458861,	 2.357663 
2.460000,	 0.250000,	 0.038064,	 1543.758111,	 -0.011844,	 1168.563662,	 12796.652695,	 655.988373,	 2.353332 
2.490000,	 0.250000,	 0.038267,	 1542.244927,	 -0.014004,	 1170.352766,	 12884.478669,	 656.490350,	 2.349227 
2.520000,	 0.250000,	 0.038458,	 1540.822341,	 -0.017243,	 1172.033091,	 12967.396410,	 656.961456,	 2.345377 
2.550000,	 0.250000,	 0.038637,	 1539.486955,	 -0.017751,	 1173.608944,	 13045.523540,	 657.402966,	 2.341771 
2.580000,	 0.250000,	 0.038808,	 1538.225236,	 -0.014939,	 1175.096565,	 13119.601136,	 657.819483,	 2.338370 
2.610000,	 0.250000,	 0.038970,	 1537.024459,	 -0.011409,	 1176.511178,	 13190.351070,	 658.215314,	 2.335139 
2.640000,	 0.250000,	 0.039125,	 1535.880882,	 -0.011098,	 1177.857368,	 13257.969685,	 658.591779,	 2.332068 
2.670000,	 0.250000,	 0.039272,	 1534.803925,	 -0.015093,	 1179.131501,	 13322.222659,	 658.947894,	 2.329173 
2.700000,	 0.250000,	 0.039411,	 1533.816110,	 -0.019054,	 1180.334780,	 13383.108474,	 659.284030,	 2.326488 
2.730000,	 0.250000,	 0.039545,	 1532.896914,	 -0.019869,	 1181.483805,	 13441.426234,	 659.604850,	 2.323962 
2.760000,	 0.250000,	 0.039674,	 1532.002323,	 -0.017187,	 1182.599492,	 13498.230328,	 659.916212,	 2.321510 
2.790000,	 0.250000,	 0.039802,	 1531.117938,	 -0.011551,	 1183.694096,	 13554.152867,	 660.221548,	 2.319097 
2.820000,	 0.250000,	 0.039927,	 1530.245557,	 -0.008290,	 1184.765412,	 13609.094555,	 660.520251,	 2.316728 
2.850000,	 0.250000,	 0.040048,	 1529.407302,	 -0.010354,	 1185.794409,	 13662.058139,	 660.807027,	 2.314454 
2.880000,	 0.250000,	 0.040162,	 1528.621971,	 -0.013674,	 1186.764718,	 13712.152838,	 661.077334,	 2.312319 
2.910000,	 0.250000,	 0.040269,	 1527.888554,	 -0.014258,	 1187.676092,	 13759.324104,	 661.331122,	 2.310323 
2.940000,	 0.250000,	 0.040371,	 1527.194003,	 -0.012263,	 1188.539210,	 13804.105436,	 661.571382,	 2.308434 
2.970000,	 0.250000,	 0.040398,	 1526.507838,	 0.101229,	 1191.291554,	 13845.641643,	 662.336952,	 2.304730 
3.000000,	 0.250000,	 0.040425,	 1525.899436,	 -0.087683,	 1193.975297,	 13885.969439,	 663.082589,	 2.301221 
0.000000,	 0.014851,	 0.044550,	 1532.900000,	 0.000000,	 1188.333000,	 15230.557603,	 661.513989,	 2.317260 
0.030000,	 0.014851,	 0.044550,	 1532.900000,	 0.000000,	 1188.333000,	 15230.557603,	 661.513989,	 2.317260 
0.060000,	 0.014851,	 0.044550,	 1532.900000,	 0.000000,	 1188.333000,	 15230.557603,	 661.513989,	 2.317260 
0.090000,	 0.014851,	 0.044550,	 1532.900000,	 0.000000,	 1188.333000,	 15230.557603,	 661.513989,	 2.317260 
0.120000,	 0.014851,	 0.044550,	 1532.900000,	 0.000000,	 1188.333000,	 15230.557603,	 661.513989,	 2.317260 
0.150000,	 0.014851,	 0.044550,	 1532.900000,	 0.000000,	 1188.333000,	 15230.557603,	 661.513989,	 2.317260 
0.180000,	 0.014851,	 0.044550,	 1532.900000,	 0.000000,	 1188.333000,	 15230.557603,	 661.513989,	 2.317260 
0.210000,	 0.014851,	 0.044550,	 1532.900000,	 0.000000,	 1188.333000,	 15230.557603,	 661.513989,	 2.317260 
0.240000,	 0.014851,	 0.044550,	 1532.900000,	 0.000000,	 1188.333000,	 15230.557603,	 661.513989,	 2.317260 
0.270000,	 0.014851,	 0.044550,	 1532.900000,	 0.000000,	 1188.333000,	 15230.557603,	 661.513989,	 2.317260 
0.300000,	 0.014851,	 0.044550,	 1532.900000,	 0.000000,	 1188.333000,	 15230.557603,	 661.513989,	 2.317260 
0.330000,	 0.014851,	 0.044550,	 1532.900000,	 0.000000,	 1188.333000,	 15230.557603,	 661.513989,	 2.317260 
0.360000,	 0.014851,	 0.044550,	 1532.900000,	 0.000000,	 1188.333000,	 15230.557603,	 661.513989,	 2.317260 
0.390000,	 0.014851,	 0.044550,	 1532.900000,	 0.000000,	 1188.333000,	 15230.557603,	 661.513989,	 2.317260 
0.420000,	 0.014851,	 0.044550,	 1532.900000,	 0.000000,	 1188.333000,	 15230.557603,	 661.513989,	 2.317260 
0.450000,	 0.014851,	 0.044550,	 1532.900000,	 0.000000,	 1188.333000,	 15230.557603,	 661.513989,	 2.317260 
0.480000,	 0.014851,	 0.044550,	 1532.900000,	 0.000000,	 1188.333000,	 15230.557603,	 661.513989,	 2.317260 
0.510000,	 0.014851,	 0.044550,	 1532.900000,	 0.000000,	 1188.333000,	 15230.557603,	 661.513989,	 2.317260 
0.540000,	 0.014851,	 0.044550,	 1532.900000,	 0.000000,	 1188.333000,	 15230.557603,	 661.513989,	 2.317260 
0.570000,	 0.014851,	 0.044550,	 1532.900000,	 0.000000,	 1188.333000,	 15230.557603,	 661.513989,	 2.317260 
0.600000,	 0.014851,	 0.044550,	 1532.900000,	 0.000000,	 1188.333000,	 15230.557603,	 661.513989,	 2.317260 
0.630000,	 0.014851,	 0.044550,	 1532.900000,	 0.000000,	 1188.333000,	 15230.557603,	 661.513989,	 2.317260 
0.660000,	 0.014851,	 0.044550,	 1532.900000,	 0.000000,	 1188.333000,	 15230.557603,	 661.513989,	 2.317260 
0.690000,	 0.014851,	 0.044550,	 1532.900000,	 0.000000,	 1188.333000,	 15230.557603,	 661.513989,	 2.317260 
0.720000,	 0.014851,	 0.044550,	 1532.900000,	 0.000000,	 1188.333000,	 15230.557603,	 661.513989,	 2.317260 
0.750000,	 0.014851,	 0.044550,	 1532.900000,	 0.000000,	 1188.333000,	 15230.557603,	 661.513989,	 2.317260 
0.780000,	 0.014851,	 0.044550,	 1532.900000,	 0.000000,	 1188.333000,	 15230.557603,	 661.513989,	 2.317260 
0.810000,	 0.014851,	 0.044550,	 1532.900000,	 0.000000,	 1188.333000,	 15230.557603,	 661.513989,	 2.317260 
0.840000,	 0.014851,	 0.044550,	 1532.900000,	 0.000000,	 1188.333000,	 15230.557603,	 661.513989,	 2.317260 
0.870000,	 0.014851,	 0.044550,	 1532.900000,	 0.000000,	 1188.333000,	 15230.557603,	 661.513989,	 2.317260 
0.900000,	 0.014851,	 0.044550,	 1532.900000,	 0.000000,	 1188.333000,	 15230.557603,	 661.513989,	 2.317260 
0.930000,	 0.014851,	 0.044550,	 1532.900000,	 0.000000,	 1188.333000,	 15230.557603,	 661.513989,	 2.317260 
0.960000,	 0.014851,	 0.044550,	 1532.900000,	 0.000000,	 1188.333000,	 15230.557603,	 661.513989,	 2.317260 
0.990000,	 0.014851,	 0.045333,	 1531.232987,	 -6.156788,	 1196.569759,	 15605.788339,	 663.802624,	 2.306778 
1.020000,	 0.019802,	 0.047857,	 1522.222711,	 21.120511,	 1214.340350,	 16719.338081,	 668.713616,	 2.276564 
1.050000,	 0.027228,	 0.053628,	 1484.088016,	 76.208495,	 1253.373069,	 19337.507277,	 679.375894,	 2.187366 
1.080000,	 0.034653,	 0.059669,	 1435.234774,	 169.993167,	 1295.367132,	 22236.673705,	 690.663317,	 2.092578 
1.110000,	 0.042079,	 0.062946,	 1409.824003,	 225.777089,	 1312.288562,	 23764.423564,	 695.159761,	 2.053899 
1.140000,	 0.049505,	 0.063281,	 1404.683013,	 247.066074,	 1313.099409,	 23905.609428,	 695.374493,	 2.051047 
1.170000,	 0.056931,	 0.063133,	 1402.353776,	 258.917511,	 1312.570836,	 23840.094489,	 695.234522,	 2.051186 
1.200000,	 0.064356,	 0.063143,	 1399.657418,	 269.231046,	 1312.934335,	 23850.452778,	 695.330783,	 2.049839 
1.230000,	 0.071782,	 0.063231,	 1397.267634,	 277.511508,	 1313.415738,	 23892.349837,	 695.458247,	 2.048375 
1.260000,	 0.079208,	 0.063293,	 1395.386133,	 284.389759,	 1313.674251,	 23920.790733,	 695.526685,	 2.047472 
1.290000,	 0.086634,	 0.063338,	 1393.840120,	 290.203090,	 1313.812091,	 23940.287326,	 695.563174,	 2.046874 
1.320000,	 0.094059,	 0.063383,	 1392.517022,	 294.986666,	 1313.896317,	 23958.879940,	 695.585470,	 2.046361 
1.350000,	 0.101485,	 0.063425,	 1391.384517,	 298.832224,	 1314.075687,	 23977.749069,	 695.632948,	 2.045782 
1.380000,	 0.108911,	 0.063464,	 1390.372800,	 302.152883,	 1314.216268,	 23995.245497,	 695.670156,	 2.045259 
1.410000,	 0.116337,	 0.063482,	 1389.497996,	 305.269393,	 1314.321153,	 24004.080358,	 695.697916,	 2.044905 
1.440000,	 0.123762,	 0.063496,	 1388.737543,	 308.011130,	 1314.370980,	 24010.074032,	 695.711103,	 2.044649 
1.470000,	 0.131188,	 0.063514,	 1388.066064,	 310.297979,	 1314.403870,	 24017.688721,	 695.719808,	 2.044395 
1.500000,	 0.138614,	 0.063531,	 1387.474638,	 312.242304,	 1314.485196,	 24025.614052,	 695.741330,	 2.044114 
1.530000,	 0.146040,	 0.063549,	 1386.924424,	 314.049953,	 1314.545394,	 24033.198701,	 695.757261,	 2.043868 
1.560000,	 0.153465,	 0.063558,	 1386.432576,	 315.789406,	 1314.588791,	 24037.590817,	 695.768745,	 2.043699 
1.590000,	 0.160891,	 0.063563,	 1386.019333,	 317.347584,	 1314.589959,	 24039.366145,	 695.769055,	 2.043617 
1.620000,	 0.168317,	 0.063569,	 1385.647426,	 318.731257,	 1314.575397,	 24041.399766,	 695.765201,	 2.043553 
1.650000,	 0.175743,	 0.063577,	 1385.304897,	 319.952044,	 1314.562752,	 24044.350002,	 695.761855,	 2.043477 
1.680000,	 0.183168,	 0.063590,	 1384.972102,	 321.021476,	 1314.598399,	 24049.690633,	 695.771288,	 2.043330 
1.710000,	 0.190594,	 0.063604,	 1384.647218,	 322.082248,	 1314.585383,	 24054.705201,	 695.767844,	 2.043230 
1.740000,	 0.198020,	 0.063611,	 1384.360082,	 323.135874,	 1314.538615,	 24056.521187,	 695.755467,	 2.043208 
1.770000,	 0.205446,	 0.063612,	 1384.125296,	 324.100435,	 1314.447525,	 24055.422112,	 695.731361,	 2.043266 
1.800000,	 0.212871,	 0.063614,	 1383.919711,	 324.928251,	 1314.345858,	 24054.458067,	 695.704454,	 2.043328 
1.830000,	 0.220297,	 0.063622,	 1383.710900,	 325.655055,	 1314.275063,	 24055.857110,	 695.685718,	 2.043330 
1.860000,	 0.227723,	 0.063632,	 1383.480819,	 326.341058,	 1314.274808,	 24059.845131,	 695.685650,	 2.043235 
1.890000,	 0.235149,	 0.063643,	 1383.247528,	 327.024333,	 1314.278273,	 24064.001487,	 695.686567,	 2.043131 
1.920000,	 0.242574,	 0.063648,	 1383.045913,	 327.708267,	 1314.249589,	 24065.237704,	 695.678975,	 2.043098 
1.950000,	 0.250000,	 0.063649,	 1382.861616,	 328.366319,	 1314.236698,	 24065.519778,	 695.675564,	 2.043069 
1.980000,	 0.257426,	 0.063590,	 1382.883170,	 331.461832,	 1314.600501,	 24049.773528,	 695.771844,	 2.043849 
2.010000,	 0.262376,	 0.055450,	 1442.648575,	 271.218567,	 1268.518538,	 20236.194474,	 683.468279,	 2.147754 
2.040000,	 0.262376,	 0.040307,	 1557.742317,	 74.494174,	 1155.536138,	 13399.681171,	 652.321540,	 2.390727 
2.070000,	 0.262376,	 0.034702,	 1594.591133,	 -14.201163,	 1115.574785,	 11137.338658,	 640.942837,	 2.487982 
2.100000,	 0.262376,	 0.034663,	 1592.201787,	 -17.577120,	 1120.379305,	 11172.815568,	 642.321550,	 2.478975 
2.130000,	 0.262376,	 0.035421,	 1586.764052,	 -6.996701,	 1127.495304,	 11489.546944,	 644.358148,	 2.462574 
2.160000,	 0.262376,	 0.036033,	 1582.524285,	 -3.298149,	 1132.318809,	 11737.978884,	 645.734982,	 2.450739 
2.190000,	 0.262376,	 0.036316,	 1580.680107,	 -3.983159,	 1134.321622,	 11851.246563,	 646.305808,	 2.445723 
2.220000,	 0.262376,	 0.036583,	 1578.912189,	 -4.138159,	 1136.454032,	 11960.841630,	 646.913018,	 2.440695 
2.250000,	 0.262376,	 0.036868,	 1577.012097,	 -4.036431,	 1138.742181,	 12078.278653,	 647.563941,	 2.435307 
2.280000,	 0.262376,	 0.037146,	 1575.164926,	 -3.802077,	 1140.964510,	 12192.963221,	 648.195515,	 2.430084 
2.310000,	 0.262376,	 0.037409,	 1573.416096,	 -3.588600,	 1143.066568,	 12302.171169,	 648.792342,	 2.425152 
2.340000,	 0.262376,	 0.037664,	 1571.733458,	 -3.437190,	 1145.086695,	 12407.787940,	 649.365390,	 2.420420 
2.370000,	 0.262376,	 0.037909,	 1570.118747,	 -3.290345,	 1147.022974,	 12509.679736,	 649.914179,	 2.415892 
2.400000,	 0.262376,	 0.038146,	 1568.563818,	 -3.154811,	 1148.885381,	 12608.277641,	 650.441594,	 2.411542 
2.430000,	 0.262376,	 0.038375,	 1567.064058,	 -3.023583,	 1150.679623,	 12703.815396,	 650.949301,	 2.407356 
2.460000,	 0.262376,	 0.038595,	 1565.627650,	 -2.873636,	 1152.396229,	 12795.721419,	 651.434669,	 2.403357 
2.490000,	 0.262376,	 0.038804,	 1564.267019,	 -2.702869,	 1154.020656,	 12883.149044,	 651.893641,	 2.399578 
2.520000,	 0.262376,	 0.039001,	 1562.986189,	 -2.530278,	 1155.548362,	 12965.779258,	 652.324991,	 2.396027 
2.550000,	 0.262376,	 0.039188,	 1561.778717,	 -2.376627,	 1156.987252,	 13043.970566,	 652.731002,	 2.392686 
2.580000,	 0.262376,	 0.039365,	 1560.633625,	 -2.247722,	 1158.350597,	 13118.385740,	 653.115464,	 2.389524 
2.610000,	 0.262376,	 0.039534,	 1559.543799,	 -2.132825,	 1159.647055,	 13189.448458,	 653.480854,	 2.386520 
2.640000,	 0.262376,	 0.039695,	 1558.509529,	 -2.017913,	 1160.876469,	 13257.108207,	 653.827161,	 2.383674 
2.670000,	 0.262376,	 0.039847,	 1557.529056,	 -1.903730,	 1162.037352,	 13321.243610,	 654.153994,	 2.380984 
2.700000,	 0.262376,	 0.039992,	 1556.583344,	 -1.806405,	 1163.138408,	 13382.295575,	 654.463834,	 2.378412 
2.730000,	 0.262376,	 0.040131,	 1555.663729,	 -1.736542,	 1164.194290,	 13441.048546,	 654.760823,	 2.375928 
2.760000,	 0.262376,	 0.040266,	 1554.771080,	 -1.691131,	 1165.219407,	 13498.286498,	 655.049030,	 2.373520 
2.790000,	 0.262376,	 0.040399,	 1553.898947,	 -1.653576,	 1166.223825,	 13554.546039,	 655.331296,	 2.371167 
2.820000,	 0.262376,	 0.040529,	 1553.053703,	 -1.598099,	 1167.200100,	 13609.394591,	 655.605535,	 2.368886 
2.850000,	 0.262376,	 0.040653,	 1552.245728,	 -1.516666,	 1168.132552,	 13661.932832,	 655.867358,	 2.366708 
2.880000,	 0.262376,	 0.040770,	 1551.479429,	 -1.425734,	 1169.013249,	 13711.690786,	 656.114552,	 2.364648 
2.910000,	 0.262376,	 0.040881,	 1550.752499,	 -1.344574,	 1169.845770,	 13758.849366,	 656.348139,	 2.362699 
2.940000,	 0.262376,	 0.040987,	 1550.060642,	 -1.277816,	 1170.637613,	 13803.817160,	 656.570235,	 2.360846 
2.970000,	 0.262376,	 0.041093,	 1548.474810,	 -1.173692,	 1171.322763,	 13847.652581,	 656.762346,	 2.357741 
3.000000,	 0.262376,	 0.041196,	 1546.943008,	 -1.235924,	 1171.978909,	 13890.002423,	 656.946271,	 2.354749 
0.000000,	 0.029703,	 0.044550,	 1532.900000,	 -0.000000,	 1188.333000,	 15230.557603,	 661.513989,	 2.317260 
0.030000,	 0.029703,	 0.044550,	 1532.900000,	 0.000000,	 1188.333000,	 15230.557603,	 661.513989,	 2.317260 
0.060000,	 0.029703,	 0.044550,	 1532.900000,	 0.000000,	 1188.333000,	 15230.557603,	 661.513989,	 2.317260 
0.090000,	 0.029703,	 0.044550,	 1532.900000,	 0.000000,	 1188.333000,	 15230.557603,	 661.513989,	 2.317260 
0.120000,	 0.029703,	 0.044550,	 1532.900000,	 0.000000,	 1188.333000,	 15230.557603,	 661.513989,	 2.317260 
0.150000,	 0.029703,	 0.044550,	 1532.900000,	 0.000000,	 1188.333000,	 15230.557603,	 661.513989,	 2.317260 
0.180000,	 0.029703,	 0.044550,	 1532.900000,	 0.000000,	 1188.333000,	 15230.557603,	 661.513989,	 2.317260 
0.210000,	 0.029703,	 0.044550,	 1532.900000,	 0.000000,	 1188.333000,	 15230.557603,	 661.513989,	 2.317260 
0.240000,	 0.029703,	 0.044550,	 1532.900000,	 0.000000,	 1188.333000,	 15230.557603,	 661.513989,	 2.317260 
0.270000,	 0.029703,	 0.044550,	 1532.900000,	 0.000000,	 1188.333000,	 15230.557603,	 661.513989,	 2.317260 
0.300000,	 0.029703,	 0.044550,	 1532.900000,	 0.000000,	 1188.333000,	 15230.557603,	 661.513989,	 2.317260 
0.330000,	 0.029703,	 0.044550,	 1532.900000,	 0.000000,	 1188.333000,	 15230.557603,	 661.513989,	 2.317260 
0.360000,	 0.029703,	 0.044550,	 1532.900000,	 0.000000,	 1188.333000,	 15230.557603,	 661.513989,	 2.317260 
0.390000,	 0.029703,	 0.044550,	 1532.900000,	 0.000000,	 1188.333000,	 15230.557603,	 661.513989,	 2.317260 
0.420000,	 0.029703,	 0.044550,	 1532.900000,	 0.000000,	 1188.333000,	 15230.557603,	 661.513989,	 2.317260 
0.450000,	 0.029703,	 0.044550,	 1532.900000,	 0.000000,	 1188.333000,	 15230.557603,	 661.513989,	 2.317260 
0.480000,	 0.029703,	 0.044550,	 1532.900000,	 0.000000,	 1188.333000,	 15230.557603,	 661.513989,	 2.317260 
0.510000,	 0.029703,	 0.044550,	 1532.900000,	 0.000000,	 1188.333000,	 15230.557603,	 661.513989,	 2.317260 
0.540000,	 0.029703,	 0.044550,	 1532.900000,	 0.000000,	 1188.333000,	 15230.557603,	 661.513989,	 2.317260 
0.570000,	 0.029703,	 0.044550,	 1532.900000,	 0.000000,	 1188.333000,	 15230.557603,	 661.513989,	 2.317260 
0.600000,	 0.029703,	 0.044550,	 1532.900000,	 0.000000,	 1188.333000,	 15230.557603,	 661.513989,	 2.317260 
0.630000,	 0.029703,	 0.044550,	 1532.900000,	 0.000000,	 1188.333000,	 15230.557603,	 661.513989,	 2.317260 
0.660000,	 0.029703,	 0.044550,	 1532.900000,	 0.000000,	 1188.333000,	 15230.557603,	 661.513989,	 2.317260 
0.690000,	 0.029703,	 0.044550,	 1532.900000,	 0.000000,	 1188.333000,	 15230.557603,	 661.513989,	 2.317260 
0.720000,	 0.029703,	 0.044550,	 1532.900000,	 0.000000,	 1188.333000,	 15230.557603,	 661.513989,	 2.317260 
0.750000,	 0.029703,	 0.044550,	 1532.900000,	 0.000000,	 1188.333000,	 15230.557603,	 661.513989,	 2.317260 
0.780000,	 0.029703,	 0.044550,	 1532.900000,	 0.000000,	 1188.333000,	 15230.557603,	 661.513989,	 2.317260 
0.810000,	 0.029703,	 0.044550,	 1532.900000,	 0.000000,	 1188.333000,	 15230.557603,	 661.513989,	 2.317260 
0.840000,	 0.029703,	 0.044550,	 1532.900000,	 0.000000,	 1188.333000,	 15230.557603,	 661.513989,	 2.317260 
0.870000,	 0.029703,	 0.044550,	 1532.900000,	 0.000000,	 1188.333000,	 15230.557603,	 661.513989,	 2.317260 
0.900000,	 0.029703,	 0.044550,	 1532.900000,	 0.000000,	 1188.333000,	 15230.557603,	 661.513989,	 2.317260 
0.930000,	 0.029703,	 0.044550,	 1532.900000,	 0.000000,	 1188.333000,	 15230.557603,	 661.513989,	 2.317260 
0.960000,	 0.029703,	 0.044550,	 1532.900000,	 0.000000,	 1188.333000,	 15230.557603,	 661.513989,	 2.317260 
0.990000,	 0.029703,	 0.044410,	 1534.279141,	 -3.882171,	 1186.648617,	 15161.310273,	 661.044996,	 2.320998 
1.020000,	 0.034604,	 0.044560,	 1534.041992,	 -3.542031,	 1186.903018,	 15215.664567,	 661.115852,	 2.320389 
1.050000,	 0.041955,	 0.044581,	 1535.252466,	 -4.277130,	 1187.082207,	 15225.159474,	 661.165755,	 2.322048 
1.080000,	 0.049307,	 0.047746,	 1513.952509,	 36.570160,	 1211.479975,	 16641.294659,	 667.925576,	 2.267310 
1.110000,	 0.056658,	 0.054409,	 1465.400990,	 120.608059,	 1260.320562,	 19727.767899,	 681.256195,	 2.158301 
1.140000,	 0.064010,	 0.059851,	 1428.660226,	 185.139517,	 1293.018336,	 22263.970743,	 690.036868,	 2.087724 
1.170000,	 0.071361,	 0.061574,	 1417.950552,	 211.217553,	 1300.409951,	 23036.016877,	 692.006376,	 2.071651 
1.200000,	 0.078713,	 0.061771,	 1414.893837,	 222.884456,	 1301.724746,	 23133.098030,	 692.356118,	 2.068793 
1.230000,	 0.086064,	 0.061962,	 1411.397451,	 232.997682,	 1303.708674,	 23240.112455,	 692.883519,	 2.064561 
1.260000,	 0.093416,	 0.062202,	 1408.017421,	 242.763014,	 1305.554276,	 23363.198399,	 693.373787,	 2.060638 
1.290000,	 0.100767,	 0.062424,	 1405.123400,	 251.149997,	 1307.070526,	 23473.623547,	 693.776307,	 2.057424 
1.320000,	 0.108119,	 0.062618,	 1402.684938,	 258.169749,	 1308.310709,	 23568.918624,	 694.105366,	 2.054797 
1.350000,	 0.115470,	 0.062780,	 1400.659733,	 264.169122,	 1309.274281,	 23647.129485,	 694.360923,	 2.052756 
1.380000,	 0.122822,	 0.062892,	 1399.041450,	 269.570087,	 1309.898439,	 23700.892058,	 694.526412,	 2.051434 
1.410000,	 0.130173,	 0.062980,	 1397.659975,	 274.476048,	 1310.350592,	 23742.232862,	 694.646270,	 2.050477 
1.440000,	 0.137525,	 0.063066,	 1396.401329,	 278.741659,	 1310.789134,	 23782.628115,	 694.762501,	 2.049549 
1.470000,	 0.144876,	 0.063147,	 1395.260246,	 282.428893,	 1311.212865,	 23820.876744,	 694.874788,	 2.048654 
1.500000,	 0.152228,	 0.063209,	 1394.265296,	 285.755117,	 1311.549432,	 23850.469988,	 694.963964,	 2.047943 
1.530000,	 0.159579,	 0.063254,	 1393.389610,	 288.841739,	 1311.803645,	 23871.714938,	 695.031311,	 2.047408 
1.560000,	 0.166931,	 0.063292,	 1392.561532,	 291.704725,	 1312.049443,	 23890.802421,	 695.096424,	 2.046890 
1.590000,	 0.174282,	 0.063327,	 1391.790053,	 294.309142,	 1312.286800,	 23908.055384,	 695.159295,	 2.046390 
1.620000,	 0.181634,	 0.063357,	 1391.084340,	 296.622353,	 1312.515036,	 23923.797630,	 695.219744,	 2.045910 
1.650000,	 0.188985,	 0.063388,	 1390.419979,	 298.689308,	 1312.751153,	 23939.902392,	 695.282275,	 2.045414 
1.680000,	 0.196337,	 0.063414,	 1389.816947,	 300.608313,	 1312.952919,	 23953.160473,	 695.335704,	 2.044991 
1.710000,	 0.203688,	 0.063431,	 1389.267253,	 302.480390,	 1313.106149,	 23962.520714,	 695.376278,	 2.044670 
1.740000,	 0.211040,	 0.063446,	 1388.748297,	 304.281189,	 1313.240524,	 23970.635332,	 695.411857,	 2.044389 
1.770000,	 0.218391,	 0.063462,	 1388.268585,	 305.916084,	 1313.369375,	 23978.807065,	 695.445972,	 2.044119 
1.800000,	 0.225743,	 0.063476,	 1387.841887,	 307.360372,	 1313.484641,	 23986.430365,	 695.476489,	 2.043879 
1.830000,	 0.233094,	 0.063490,	 1387.456306,	 308.672484,	 1313.585778,	 23993.398419,	 695.503264,	 2.043667 
1.860000,	 0.240446,	 0.063503,	 1387.089769,	 309.926822,	 1313.678897,	 24000.211407,	 695.527915,	 2.043473 
1.890000,	 0.247797,	 0.063516,	 1386.735710,	 311.174457,	 1313.758992,	 24006.474688,	 695.549118,	 2.043306 
1.920000,	 0.255149,	 0.063525,	 1386.412342,	 312.407919,	 1313.803128,	 24010.693294,	 695.560802,	 2.043207 
1.950000,	 0.262500,	 0.063531,	 1386.119782,	 313.577016,	 1313.840930,	 24013.662471,	 695.570808,	 2.043138 
1.980000,	 0.269851,	 0.064128,	 1381.490252,	 320.806654,	 1317.119755,	 24299.687208,	 696.438202,	 2.036433 