TITLE = "Final State"
VARIABLES = "X", "Y", "rho", "u", "v", "T", "p", "c", "M"
ZONE I=100, J=100, DATAPACKING=POINT
0.015000,	 0.007425,	 0.044550,	 1532.900000,	 -0.000000,	 1188.333000,	 15230.557603,	 661.513989,	 2.317260 
0.045000,	 0.007425,	 0.044550,	 1532.900000,	 -0.000000,	 1188.333000,	 15230.557603,	 661.513989,	 2.317260 
0.075000,	 0.007425,	 0.044550,	 1532.900000,	 -0.000000,	 1188.333000,	 15230.557603,	 661.513989,	 2.317260 
0.105000,	 0.007425,	 0.044550,	 1532.900000,	 -0.000000,	 1188.333000,	 15230.557603,	 661.513989,	 2.317260 
0.135000,	 0.007425,	 0.044550,	 1532.900000,	 -0.000000,	 1188.333000,	 15230.557603,	 661.513989,	 2.317260 
0.165000,	 0.007425,	 0.044550,	 1532.900000,	 -0.000000,	 1188.333000,	 15230.557603,	 661.513989,	 2.317260 
0.195000,	 0.007425,	 0.044550,	 1532.900000,	 0.000000,	 1188.333000,	 15230.557603,	 661.513989,	 2.317260 
0.225000,	 0.007425,	 0.044550,	 1532.900000,	 0.000000,	 1188.333000,	 15230.557603,	 661.513989,	 2.317260 
0.255000,	 0.007425,	 0.044550,	 1532.900000,	 0.000000,	 1188.333000,	 15230.557603,	 661.513989,	 2.317260 
0.285000,	 0.007425,	 0.044550,	 1532.900000,	 0.000000,	 1188.333000,	 15230.557603,	 661.513989,	 2.317260 
0.315000,	 0.007425,	 0.044550,	 1532.900000,	 0.000000,	 1188.333000,	 15230.557603,	 661.513989,	 2.317260 
0.345000,	 0.007425,	 0.044550,	 1532.900000,	 0.000000,	 1188.333000,	 15230.557603,	 661.513989,	 2.317260 
0.375000,	 0.007425,	 0.044550,	 1532.900000,	 0.000000,	 1188.333000,	 15230.557603,	 661.513989,	 2.317260 
0.405000,	 0.007425,	 0.044550,	 1532.900000,	 0.000000,	 1188.333000,	 15230.557603,	 661.513989,	 2.317260 
0.435000,	 0.007425,	 0.044550,	 1532.900000,	 0.000000,	 1188.333000,	 15230.557603,	 661.513989,	 2.317260 
0.465000,	 0.007425,	 0.044550,	 1532.900000,	 0.000000,	 1188.333000,	 15230.557603,	 661.513989,	 2.317260 
0.495000,	 0.007425,	 0.044550,	 1532.900000,	 0.000000,	 1188.333000,	 15230.557603,	 661.513989,	 2.317260 
0.525000,	 0.007425,	 0.044550,	 1532.900000,	 0.000000,	 1188.333000,	 15230.557603,	 661.513989,	 2.317260 
0.555000,	 0.007425,	 0.044550,	 1532.900000,	 0.000000,	 1188.333000,	 15230.557603,	 661.513989,	 2.317260 
0.585000,	 0.007425,	 0.044550,	 1532.900000,	 0.000000,	 1188.333000,	 15230.557603,	 661.513989,	 2.317260 
0.615000,	 0.007425,	 0.044550,	 1532.900000,	 0.000000,	 1188.333000,	 15230.557603,	 661.513989,	 2.317260 
0.645000,	 0.007425,	 0.044550,	 1532.900000,	 0.000000,	 1188.333000,	 15230.557603,	 661.513989,	 2.317260 
0.675000,	 0.007425,	 0.044550,	 1532.900000,	 0.000000,	 1188.333000,	 15230.557603,	 661.513989,	 2.317260 
0.705000,	 0.007425,	 0.044550,	 1532.900000,	 0.000000,	 1188.333000,	 15230.557603,	 661.513989,	 2.317260 
0.735000,	 0.007425,	 0.044550,	 1532.900000,	 0.000000,	 1188.333000,	 15230.557603,	 661.513989,	 2.317260 
0.765000,	 0.007425,	 0.044550,	 1532.900000,	 0.000000,	 1188.333000,	 15230.557603,	 661.513989,	 2.317260 
0.795000,	 0.007425,	 0.044550,	 1532.900000,	 0.000000,	 1188.333000,	 15230.557603,	 661.513989,	 2.317260 
0.825000,	 0.007425,	 0.044550,	 1532.900000,	 0.000000,	 1188.333000,	 15230.557603,	 661.513989,	 2.317260 
0.855000,	 0.007425,	 0.044550,	 1532.900000,	 0.000000,	 1188.333000,	 15230.557603,	 661.513989,	 2.317260 
0.885000,	 0.007425,	 0.044550,	 1532.900000,	 -0.000000,	 1188.333000,	 15230.557603,	 661.513989,	 2.317260 
0.915000,	 0.007425,	 0.044550,	 1532.900000,	 -0.000000,	 1188.333000,	 15230.557603,	 661.513989,	 2.317260 
0.945000,	 0.007425,	 0.044550,	 1532.900000,	 -0.000000,	 1188.333000,	 15230.557603,	 661.513989,	 2.317260 
0.975000,	 0.007425,	 0.044550,	 1532.900000,	 -0.000000,	 1188.333000,	 15230.557603,	 661.513989,	 2.317260 
1.005000,	 0.009913,	 0.043929,	 1537.012794,	 100.559274,	 1179.688456,	 14909.047424,	 659.103501,	 2.336960 
1.035000,	 0.016133,	 0.047980,	 1499.683205,	 204.714161,	 1210.696957,	 16711.916820,	 667.709690,	 2.266840 
1.065000,	 0.023595,	 0.051354,	 1474.293962,	 249.399386,	 1231.688488,	 18197.157571,	 673.473319,	 2.220192 
1.095000,	 0.031058,	 0.053914,	 1456.676802,	 273.641432,	 1246.498665,	 19334.188191,	 677.510238,	 2.187651 
1.125000,	 0.038521,	 0.055815,	 1444.099440,	 288.850920,	 1257.116645,	 20186.179557,	 680.389718,	 2.164501 
1.155000,	 0.045984,	 0.057221,	 1434.913994,	 299.223342,	 1264.851489,	 20822.100955,	 682.479674,	 2.147728 
1.185000,	 0.053447,	 0.058270,	 1428.055175,	 306.675950,	 1270.600197,	 21300.082518,	 684.028840,	 2.135310 
1.215000,	 0.060909,	 0.059064,	 1422.812730,	 312.232194,	 1274.974807,	 21664.659474,	 685.205366,	 2.125887 
1.245000,	 0.068373,	 0.059676,	 1418.708318,	 316.502496,	 1278.388011,	 21947.877379,	 686.121926,	 2.118551 
1.275000,	 0.075836,	 0.060158,	 1415.417560,	 319.870074,	 1281.118984,	 22172.430530,	 686.854404,	 2.112691 
1.305000,	 0.083298,	 0.060545,	 1412.718571,	 322.585342,	 1283.357733,	 22354.161246,	 687.454279,	 2.107894 
1.335000,	 0.090761,	 0.060862,	 1410.459181,	 324.813567,	 1285.234338,	 22504.096791,	 687.956714,	 2.103877 
1.365000,	 0.098224,	 0.061126,	 1408.535397,	 326.676795,	 1286.834611,	 22629.822740,	 688.384876,	 2.100455 
1.395000,	 0.105687,	 0.061349,	 1406.873626,	 328.257856,	 1288.219631,	 22736.782145,	 688.755231,	 2.097496 
1.425000,	 0.113150,	 0.061540,	 1405.419660,	 329.616332,	 1289.434406,	 22828.983472,	 689.079898,	 2.094902 
1.455000,	 0.120613,	 0.061705,	 1404.134137,	 330.794568,	 1290.511692,	 22909.385967,	 689.367691,	 2.092604 
1.485000,	 0.128076,	 0.061850,	 1402.987521,	 331.826352,	 1291.475449,	 22980.120684,	 689.625054,	 2.090548 
1.515000,	 0.135539,	 0.061977,	 1401.957095,	 332.737363,	 1292.344107,	 23042.832524,	 689.856939,	 2.088696 
1.545000,	 0.143001,	 0.062089,	 1401.024340,	 333.547752,	 1293.132804,	 23098.861228,	 690.067411,	 2.087016 
1.575000,	 0.150464,	 0.062190,	 1400.175072,	 334.272130,	 1293.853325,	 23149.264793,	 690.259634,	 2.085481 
1.605000,	 0.157927,	 0.062281,	 1399.398104,	 334.923755,	 1294.514499,	 23194.817383,	 690.435977,	 2.084074 
1.635000,	 0.165390,	 0.062362,	 1398.684063,	 335.512977,	 1295.123892,	 23236.181127,	 690.598469,	 2.082777 
1.665000,	 0.172853,	 0.062437,	 1398.024797,	 336.048621,	 1295.688100,	 23273.930041,	 690.748879,	 2.081576 
1.695000,	 0.180316,	 0.062504,	 1397.413824,	 336.536705,	 1296.212617,	 23308.544314,	 690.888678,	 2.080460 
1.725000,	 0.187779,	 0.062566,	 1396.845941,	 336.983525,	 1296.701479,	 23340.369558,	 691.018949,	 2.079421 
1.755000,	 0.195242,	 0.062623,	 1396.316515,	 337.394078,	 1297.158417,	 23369.723435,	 691.140691,	 2.078449 
1.785000,	 0.202704,	 0.062675,	 1395.821284,	 337.772900,	 1297.586873,	 23396.900222,	 691.254824,	 2.077538 
1.815000,	 0.210167,	 0.062723,	 1395.356765,	 338.122713,	 1297.989908,	 23422.155386,	 691.362169,	 2.076682 
1.845000,	 0.217630,	 0.062767,	 1394.920265,	 338.446963,	 1298.369547,	 23445.658989,	 691.463267,	 2.075875 
1.875000,	 0.225093,	 0.062809,	 1394.509232,	 338.748371,	 1298.727841,	 23467.580260,	 691.558668,	 2.075114 
1.905000,	 0.232556,	 0.062847,	 1394.121179,	 339.029553,	 1299.066792,	 23488.088753,	 691.648906,	 2.074394 
1.935000,	 0.240019,	 0.062883,	 1393.754017,	 339.291779,	 1299.388321,	 23507.334749,	 691.734494,	 2.073712 
1.965000,	 0.247481,	 0.062917,	 1393.406356,	 339.537183,	 1299.693376,	 23525.396604,	 691.815688,	 2.073064 
1.995000,	 0.253701,	 0.056227,	 1437.172320,	 280.569385,	 1266.497406,	 20487.008750,	 682.923576,	 2.144168 
2.025000,	 0.256188,	 0.043196,	 1502.414214,	 142.489148,	 1215.793627,	 15108.957532,	 669.113643,	 2.255455 
2.055000,	 0.256188,	 0.037861,	 1534.955508,	 68.282232,	 1184.163020,	 12898.441668,	 660.352309,	 2.326748 
2.085000,	 0.256188,	 0.035735,	 1549.339115,	 30.071912,	 1168.725799,	 12015.380569,	 656.033881,	 2.362120 
2.115000,	 0.256188,	 0.035020,	 1554.545325,	 11.504308,	 1162.875793,	 11716.159654,	 654.389946,	 2.375629 
2.145000,	 0.256188,	 0.034922,	 1555.381280,	 3.105543,	 1161.934069,	 11673.862795,	 654.124923,	 2.377809 
2.175000,	 0.256188,	 0.035079,	 1554.280452,	 -0.373711,	 1163.239113,	 11739.374380,	 654.492165,	 2.374789 
2.205000,	 0.256188,	 0.035329,	 1552.440435,	 -1.641657,	 1165.411403,	 11845.152977,	 655.102995,	 2.369767 
2.235000,	 0.256188,	 0.035605,	 1550.411372,	 -1.999779,	 1167.804470,	 11962.065488,	 655.775248,	 2.364244 
2.265000,	 0.256188,	 0.035879,	 1548.396039,	 -2.018201,	 1170.178708,	 12078.766532,	 656.441531,	 2.358774 
2.295000,	 0.256188,	 0.036143,	 1546.462108,	 -1.927792,	 1172.454308,	 12191.375568,	 657.079498,	 2.353541 
2.325000,	 0.256188,	 0.036395,	 1544.625260,	 -1.814189,	 1174.613071,	 12298.928408,	 657.684139,	 2.348584 
2.355000,	 0.256188,	 0.036635,	 1542.884879,	 -1.705055,	 1176.656088,	 12401.459410,	 658.255849,	 2.343900 
2.385000,	 0.256188,	 0.036863,	 1541.234348,	 -1.606402,	 1178.591489,	 12499.278540,	 658.796986,	 2.339469 
2.415000,	 0.256188,	 0.037081,	 1539.666022,	 -1.517409,	 1180.428564,	 12592.707694,	 659.310221,	 2.335269 
2.445000,	 0.256188,	 0.037289,	 1538.174143,	 -1.436036,	 1182.174348,	 12682.002207,	 659.797581,	 2.331283 
2.475000,	 0.256188,	 0.037487,	 1536.754341,	 -1.360495,	 1183.834210,	 12767.357299,	 660.260622,	 2.327497 
2.505000,	 0.256188,	 0.037676,	 1535.403136,	 -1.289537,	 1185.412448,	 12848.926904,	 660.700591,	 2.323902 
2.535000,	 0.256188,	 0.037857,	 1534.117556,	 -1.222384,	 1186.912742,	 12926.841829,	 661.118560,	 2.320489 
2.565000,	 0.256188,	 0.038029,	 1532.894857,	 -1.158605,	 1188.338484,	 13001.224220,	 661.515515,	 2.317248 
2.595000,	 0.256188,	 0.038193,	 1531.732334,	 -1.098003,	 1189.693000,	 13072.198109,	 661.892419,	 2.314172 
2.625000,	 0.256188,	 0.038349,	 1530.627202,	 -1.040533,	 1190.979690,	 13139.896360,	 662.250251,	 2.311253 
2.655000,	 0.256188,	 0.038498,	 1529.576534,	 -0.986234,	 1192.202106,	 13204.464405,	 662.590029,	 2.308482 
2.685000,	 0.256188,	 0.038640,	 1528.577244,	 -0.935184,	 1193.363964,	 13266.061145,	 662.912813,	 2.305850 
2.715000,	 0.256188,	 0.038776,	 1527.626110,	 -0.887453,	 1194.469123,	 13324.857471,	 663.219699,	 2.303349 
2.745000,	 0.256188,	 0.038905,	 1526.719828,	 -0.843078,	 1195.521526,	 13381.032974,	 663.511804,	 2.300969 
2.775000,	 0.256188,	 0.039028,	 1525.855080,	 -0.802042,	 1196.525113,	 13434.771475,	 663.790240,	 2.298701 
2.805000,	 0.256188,	 0.039146,	 1525.028611,	 -0.764266,	 1197.483742,	 13486.256025,	 664.056094,	 2.296536 
2.835000,	 0.256188,	 0.039260,	 1524.237306,	 -0.729606,	 1198.401095,	 13535.663981,	 664.310401,	 2.294466 
2.865000,	 0.256188,	 0.039369,	 1523.478252,	 -0.697862,	 1199.280612,	 13583.162635,	 664.554128,	 2.292482 
2.895000,	 0.256188,	 0.039473,	 1522.748788,	 -0.668792,	 1200.125428,	 13628.905751,	 664.788154,	 2.290578 
2.925000,	 0.256188,	 0.039574,	 1522.046540,	 -0.642119,	 1200.938341,	 13673.031180,	 665.013266,	 2.288746 
2.955000,	 0.256188,	 0.039672,	 1521.369433,	 -0.617557,	 1201.721795,	 13715.659624,	 665.230147,	 2.286982 
2.985000,	 0.256188,	 0.039766,	 1520.715690,	 -0.594819,	 1202.477885,	 13756.894440,	 665.439386,	 2.285281 
0.015000,	 0.022277,	 0.044550,	 1532.900000,	 0.000000,	 1188.333000,	 15230.557603,	 661.513989,	 2.317260 
0.045000,	 0.022277,	 0.044550,	 1532.900000,	 0.000000,	 1188.333000,	 15230.557603,	 661.513989,	 2.317260 
0.075000,	 0.022277,	 0.044550,	 1532.900000,	 0.000000,	 1188.333000,	 15230.557603,	 661.513989,	 2.317260 
0.105000,	 0.022277,	 0.044550,	 1532.900000,	 0.000000,	 1188.333000,	 15230.557603,	 661.513989,	 2.317260 
0.135000,	 0.022277,	 0.044550,	 1532.900000,	 0.000000,	 1188.333000,	 15230.557603,	 661.513989,	 2.317260 
0.165000,	 0.022277,	 0.044550,	 1532.900000,	 0.000000,	 1188.333000,	 15230.557603,	 661.513989,	 2.317260 
0.195000,	 0.022277,	 0.044550,	 1532.900000,	 0.000000,	 1188.333000,	 15230.557603,	 661.513989,	 2.317260 
0.225000,	 0.022277,	 0.044550,	 1532.900000,	 0.000000,	 1188.333000,	 15230.557603,	 661.513989,	 2.317260 
0.255000,	 0.022277,	 0.044550,	 1532.900000,	 0.000000,	 1188.333000,	 15230.557603,	 661.513989,	 2.317260 
0.285000,	 0.022277,	 0.044550,	 1532.900000,	 0.000000,	 1188.333000,	 15230.557603,	 661.513989,	 2.317260 
0.315000,	 0.022277,	 0.044550,	 1532.900000,	 0.000000,	 1188.333000,	 15230.557603,	 661.513989,	 2.317260 
0.345000,	 0.022277,	 0.044550,	 1532.900000,	 0.000000,	 1188.333000,	 15230.557603,	 661.513989,	 2.317260 
0.375000,	 0.022277,	 0.044550,	 1532.900000,	 0.000000,	 1188.333000,	 15230.557603,	 661.513989,	 2.317260 
0.405000,	 0.022277,	 0.044550,	 1532.900000,	 0.000000,	 1188.333000,	 15230.557603,	 661.513989,	 2.317260 
0.435000,	 0.022277,	 0.044550,	 1532.900000,	 0.000000,	 1188.333000,	 15230.557603,	 661.513989,	 2.317260 
0.465000,	 0.022277,	 0.044550,	 1532.900000,	 0.000000,	 1188.333000,	 15230.557603,	 661.513989,	 2.317260 
0.495000,	 0.022277,	 0.044550,	 1532.900000,	 0.000000,	 1188.333000,	 15230.557603,	 661.513989,	 2.317260 
0.525000,	 0.022277,	 0.044550,	 1532.900000,	 0.000000,	 1188.333000,	 15230.557603,	 661.513989,	 2.317260 
0.555000,	 0.022277,	 0.044550,	 1532.900000,	 0.000000,	 1188.333000,	 15230.557603,	 661.513989,	 2.317260 
0.585000,	 0.022277,	 0.044550,	 1532.900000,	 0.000000,	 1188.333000,	 15230.557603,	 661.513989,	 2.317260 
0.615000,	 0.022277,	 0.044550,	 1532.900000,	 0.000000,	 1188.333000,	 15230.557603,	 661.513989,	 2.317260 
0.645000,	 0.022277,	 0.044550,	 1532.900000,	 0.000000,	 1188.333000,	 15230.557603,	 661.513989,	 2.317260 
0.675000,	 0.022277,	 0.044550,	 1532.900000,	 -0.000000,	 1188.333000,	 15230.557603,	 661.513989,	 2.317260 
0.705000,	 0.022277,	 0.044550,	 1532.900000,	 -0.000000,	 1188.333000,	 15230.557603,	 661.513989,	 2.317260 
0.735000,	 0.022277,	 0.044550,	 1532.900000,	 -0.000000,	 1188.333000,	 15230.557603,	 661.513989,	 2.317260 
0.765000,	 0.022277,	 0.044550,	 1532.900000,	 -0.000000,	 1188.333000,	 15230.557603,	 661.513989,	 2.317260 
0.795000,	 0.022277,	 0.044550,	 1532.900000,	 -0.000000,	 1188.333000,	 15230.557603,	 661.513989,	 2.317260 
0.825000,	 0.022277,	 0.044550,	 1532.900000,	 -0.000000,	 1188.333000,	 15230.557603,	 661.513989,	 2.317260 
0.855000,	 0.022277,	 0.044550,	 1532.900000,	 -0.000000,	 1188.333000,	 15230.557603,	 661.513989,	 2.317260 
0.885000,	 0.022277,	 0.044550,	 1532.900000,	 -0.000000,	 1188.333000,	 15230.557603,	 661.513989,	 2.317260 
0.915000,	 0.022277,	 0.044550,	 1532.900000,	 -0.000000,	 1188.333000,	 15230.557603,	 661.513989,	 2.317260 
0.945000,	 0.022277,	 0.044550,	 1532.900000,	 -0.000000,	 1188.333000,	 15230.557603,	 661.513989,	 2.317260 
0.975000,	 0.022277,	 0.044550,	 1532.900000,	 -0.000000,	 1188.333000,	 15230.557603,	 661.513989,	 2.317260 
1.005000,	 0.024740,	 0.045478,	 1525.640017,	 23.691341,	 1196.561469,	 15655.562577,	 663.800325,	 2.298619 
1.035000,	 0.030897,	 0.047825,	 1505.471647,	 71.777940,	 1218.057469,	 16759.093038,	 669.736307,	 2.250411 
1.065000,	 0.038286,	 0.050489,	 1484.732852,	 119.158059,	 1238.194284,	 17985.282048,	 675.249624,	 2.205861 
1.095000,	 0.045674,	 0.052890,	 1467.192259,	 158.115111,	 1253.772793,	 19077.556635,	 679.484218,	 2.171776 
1.125000,	 0.053063,	 0.054856,	 1453.243118,	 188.487879,	 1265.258104,	 19968.005821,	 682.589365,	 2.146848 
1.155000,	 0.060452,	 0.056393,	 1442.382864,	 211.865288,	 1273.655503,	 20663.741826,	 684.850760,	 2.128726 
1.185000,	 0.067840,	 0.057570,	 1433.968098,	 229.917710,	 1279.825263,	 21197.223963,	 686.507511,	 2.115466 
1.215000,	 0.075229,	 0.058467,	 1427.414226,	 244.016154,	 1284.414558,	 21604.597370,	 687.737274,	 2.105632 
1.245000,	 0.082617,	 0.059155,	 1422.251390,	 255.200073,	 1287.885273,	 21917.880335,	 688.665842,	 2.098210 
1.275000,	 0.090006,	 0.059690,	 1418.119456,	 264.230534,	 1290.563835,	 22162.123135,	 689.381618,	 2.092492 
1.305000,	 0.097395,	 0.060114,	 1414.755140,	 271.653445,	 1292.674918,	 22356.033792,	 689.945227,	 2.087992 
1.335000,	 0.104783,	 0.060456,	 1411.965497,	 277.862168,	 1294.375744,	 22512.926688,	 690.398973,	 2.084369 
1.365000,	 0.112172,	 0.060739,	 1409.612864,	 283.130101,	 1295.775894,	 22642.479160,	 690.772280,	 2.081389 
1.395000,	 0.119561,	 0.060975,	 1407.597251,	 287.660707,	 1296.951551,	 22751.323724,	 691.085578,	 2.078889 
1.425000,	 0.126949,	 0.061177,	 1405.848105,	 291.600889,	 1297.954740,	 22844.248474,	 691.352803,	 2.076757 
1.455000,	 0.134338,	 0.061351,	 1404.310996,	 295.062760,	 1298.824806,	 22924.596057,	 691.584483,	 2.074908 
1.485000,	 0.141727,	 0.061503,	 1402.947313,	 298.129162,	 1299.588678,	 22994.964486,	 691.787823,	 2.073286 
1.515000,	 0.149115,	 0.061637,	 1401.727065,	 300.867316,	 1300.266254,	 23057.124755,	 691.968141,	 2.071848 
1.545000,	 0.156504,	 0.061757,	 1400.628439,	 303.326976,	 1300.871738,	 23112.509822,	 692.129233,	 2.070563 
1.575000,	 0.163892,	 0.061863,	 1399.631857,	 305.550017,	 1301.418104,	 23162.157958,	 692.274565,	 2.069404 
1.605000,	 0.171281,	 0.061959,	 1398.723357,	 307.568199,	 1301.914208,	 23207.013349,	 692.406501,	 2.068352 
1.635000,	 0.178670,	 0.062046,	 1397.890882,	 309.409946,	 1302.367304,	 23247.723081,	 692.526977,	 2.067391 
1.665000,	 0.186058,	 0.062126,	 1397.125890,	 311.096939,	 1302.782221,	 23284.845600,	 692.637283,	 2.066511 
1.695000,	 0.193447,	 0.062198,	 1396.419042,	 312.648628,	 1303.164967,	 23318.806085,	 692.739021,	 2.065700 
1.725000,	 0.200836,	 0.062265,	 1395.763981,	 314.079529,	 1303.519394,	 23350.065664,	 692.833219,	 2.064949 
1.755000,	 0.208224,	 0.062326,	 1395.154735,	 315.404300,	 1303.848795,	 23378.910403,	 692.920753,	 2.064251 
1.785000,	 0.215613,	 0.062382,	 1394.587418,	 316.633831,	 1304.155051,	 23405.608041,	 693.002127,	 2.063602 
1.815000,	 0.223001,	 0.062434,	 1394.056689,	 317.778588,	 1304.441617,	 23430.363772,	 693.078260,	 2.062995 
1.845000,	 0.230390,	 0.062483,	 1393.559265,	 318.846007,	 1304.710435,	 23453.443125,	 693.149671,	 2.062426 
1.875000,	 0.237779,	 0.062528,	 1393.091794,	 319.844638,	 1304.963202,	 23474.986171,	 693.216811,	 2.061891 
1.905000,	 0.245167,	 0.062571,	 1392.652400,	 320.780459,	 1305.200634,	 23495.137250,	 693.279872,	 2.061388 
1.935000,	 0.252556,	 0.062610,	 1392.237659,	 321.659702,	 1305.424995,	 23514.003406,	 693.339456,	 2.060913 
1.965000,	 0.259944,	 0.062647,	 1391.845445,	 322.486833,	 1305.637578,	 23531.763064,	 693.395907,	 2.060463 
1.995000,	 0.266101,	 0.058833,	 1419.302523,	 288.573779,	 1284.171539,	 21735.667342,	 687.672210,	 2.106152 
2.025000,	 0.268564,	 0.050039,	 1471.617636,	 197.722897,	 1243.470208,	 17900.779931,	 676.686708,	 2.194281 
2.055000,	 0.268564,	 0.043809,	 1510.546061,	 121.968716,	 1208.542039,	 15231.832062,	 667.115198,	 2.271665 
2.085000,	 0.268564,	 0.039988,	 1535.450100,	 68.995115,	 1183.548475,	 13615.754165,	 660.180935,	 2.328149 
2.115000,	 0.268564,	 0.037823,	 1549.943568,	 35.214332,	 1167.885946,	 12708.246497,	 655.798124,	 2.364056 
2.145000,	 0.268564,	 0.036712,	 1557.529402,	 15.226062,	 1159.307374,	 12244.303171,	 653.385139,	 2.383898 
2.175000,	 0.268564,	 0.036237,	 1560.821068,	 4.239738,	 1155.486305,	 12046.070404,	 652.307474,	 2.392778 
2.205000,	 0.268564,	 0.036125,	 1561.580772,	 -1.337189,	 1154.590636,	 11999.565783,	 652.054609,	 2.394863 
2.235000,	 0.268564,	 0.036207,	 1560.940329,	 -3.902718,	 1155.345806,	 12034.567194,	 652.267815,	 2.393105 
2.265000,	 0.268564,	 0.036384,	 1559.615105,	 -4.918931,	 1156.914603,	 12109.782501,	 652.710509,	 2.389456 
2.295000,	 0.268564,	 0.036602,	 1557.999740,	 -5.193242,	 1158.828163,	 12202.576368,	 653.250084,	 2.385011 
2.325000,	 0.268564,	 0.036834,	 1556.295485,	 -5.137284,	 1160.846203,	 12301.273322,	 653.818637,	 2.380330 
2.355000,	 0.268564,	 0.037066,	 1554.597472,	 -4.948632,	 1162.855160,	 12400.193550,	 654.384141,	 2.375677 
2.385000,	 0.268564,	 0.037292,	 1552.948930,	 -4.716537,	 1164.803640,	 12496.748549,	 654.932155,	 2.371171 
2.415000,	 0.268564,	 0.037510,	 1551.368169,	 -4.478185,	 1166.670081,	 12589.869858,	 655.456665,	 2.366861 
2.445000,	 0.268564,	 0.037718,	 1549.859522,	 -4.246859,	 1168.449576,	 12679.209425,	 655.956351,	 2.362757 
2.475000,	 0.268564,	 0.037918,	 1548.422578,	 -4.026376,	 1170.142848,	 12764.713406,	 656.431472,	 2.358857 
2.505000,	 0.268564,	 0.038108,	 1547.055187,	 -3.817070,	 1171.752667,	 12846.443922,	 656.882858,	 2.355153 
2.535000,	 0.268564,	 0.038290,	 1545.754659,	 -3.618298,	 1173.282418,	 12924.505244,	 657.311506,	 2.351638 
2.565000,	 0.268564,	 0.038463,	 1544.518164,	 -3.429399,	 1174.735628,	 12999.017557,	 657.718449,	 2.348303 
2.595000,	 0.268564,	 0.038628,	 1543.342819,	 -3.249979,	 1176.115868,	 13070.110472,	 658.104724,	 2.345138 
2.625000,	 0.268564,	 0.038785,	 1542.225666,	 -3.079931,	 1177.426774,	 13137.923341,	 658.471386,	 2.342135 
2.655000,	 0.268564,	 0.038935,	 1541.163640,	 -2.919350,	 1178.672090,	 13202.606660,	 658.819513,	 2.339285 
2.685000,	 0.268564,	 0.039077,	 1540.153558,	 -2.768425,	 1179.855679,	 13264.322365,	 659.150214,	 2.336578 
2.715000,	 0.268564,	 0.039214,	 1539.192139,	 -2.627332,	 1180.981504,	 13323.242402,	 659.464621,	 2.334006 
2.745000,	 0.268564,	 0.039344,	 1538.276049,	 -2.496156,	 1182.053574,	 13379.545754,	 659.763877,	 2.331558 
2.775000,	 0.268564,	 0.039468,	 1537.401962,	 -2.374826,	 1183.075876,	 13433.414394,	 660.049115,	 2.329226 
2.805000,	 0.268564,	 0.039587,	 1536.566629,	 -2.263095,	 1184.052292,	 13485.028756,	 660.321434,	 2.327000 
2.835000,	 0.268564,	 0.039701,	 1535.766945,	 -2.160537,	 1184.986525,	 13534.563247,	 660.581884,	 2.324872 
2.865000,	 0.268564,	 0.039811,	 1535.000007,	 -2.066560,	 1185.882032,	 13582.182273,	 660.831441,	 2.322833 
2.895000,	 0.268564,	 0.039916,	 1534.263160,	 -1.980450,	 1186.741968,	 13628.037083,	 661.070997,	 2.320877 
2.925000,	 0.268564,	 0.040018,	 1533.554029,	 -1.901403,	 1187.569158,	 13672.263594,	 661.301349,	 2.318996 
2.955000,	 0.268564,	 0.040116,	 1532.870528,	 -1.828579,	 1188.366082,	 13714.981260,	 661.523197,	 2.317185 
2.985000,	 0.268564,	 0.040211,	 1532.210858,	 -1.761141,	 1189.134875,	 13756.292900,	 661.737143,	 2.315439 
0.015000,	 0.037129,	 0.044550,	 1532.900000,	 -0.000000,	 1188.333000,	 15230.557603,	 661.513989,	 2.317260 
0.045000,	 0.037129,	 0.044550,	 1532.900000,	 -0.000000,	 1188.333000,	 15230.557603,	 661.513989,	 2.317260 
0.075000,	 0.037129,	 0.044550,	 1532.900000,	 -0.000000,	 1188.333000,	 15230.557603,	 661.513989,	 2.317260 
0.105000,	 0.037129,	 0.044550,	 1532.900000,	 0.000000,	 1188.333000,	 15230.557603,	 661.513989,	 2.317260 
0.135000,	 0.037129,	 0.044550,	 1532.900000,	 0.000000,	 1188.333000,	 15230.557603,	 661.513989,	 2.317260 
0.165000,	 0.037129,	 0.044550,	 1532.900000,	 0.000000,	 1188.333000,	 15230.557603,	 661.513989,	 2.317260 
0.195000,	 0.037129,	 0.044550,	 1532.900000,	 0.000000,	 1188.333000,	 15230.557603,	 661.513989,	 2.317260 
0.225000,	 0.037129,	 0.044550,	 1532.900000,	 0.000000,	 1188.333000,	 15230.557603,	 661.513989,	 2.317260 
0.255000,	 0.037129,	 0.044550,	 1532.900000,	 0.000000,	 1188.333000,	 15230.557603,	 661.513989,	 2.317260 
0.285000,	 0.037129,	 0.044550,	 1532.900000,	 0.000000,	 1188.333000,	 15230.557603,	 661.513989,	 2.317260 
0.315000,	 0.037129,	 0.044550,	 1532.900000,	 0.000000,	 1188.333000,	 15230.557603,	 661.513989,	 2.317260 
0.345000,	 0.037129,	 0.044550,	 1532.900000,	 0.000000,	 1188.333000,	 15230.557603,	 661.513989,	 2.317260 
0.375000,	 0.037129,	 0.044550,	 1532.900000,	 0.000000,	 1188.333000,	 15230.557603,	 661.513989,	 2.317260 
0.405000,	 0.037129,	 0.044550,	 1532.900000,	 0.000000,	 1188.333000,	 15230.557603,	 661.513989,	 2.317260 
0.435000,	 0.037129,	 0.044550,	 1532.900000,	 0.000000,	 1188.333000,	 15230.557603,	 661.513989,	 2.317260 
0.465000,	 0.037129,	 0.044550,	 1532.900000,	 0.000000,	 1188.333000,	 15230.557603,	 661.513989,	 2.317260 
0.495000,	 0.037129,	 0.044550,	 1532.900000,	 0.000000,	 1188.333000,	 15230.557603,	 661.513989,	 2.317260 
0.525000,	 0.037129,	 0.044550,	 1532.900000,	 0.000000,	 1188.333000,	 15230.557603,	 661.513989,	 2.317260 
0.555000,	 0.037129,	 0.044550,	 1532.900000,	 -0.000000,	 1188.333000,	 15230.557603,	 661.513989,	 2.317260 
0.585000,	 0.037129,	 0.044550,	 1532.900000,	 -0.000000,	 1188.333000,	 15230.557603,	 661.513989,	 2.317260 
0.615000,	 0.037129,	 0.044550,	 1532.900000,	 -0.000000,	 1188.333000,	 15230.557603,	 661.513989,	 2.317260 
0.645000,	 0.037129,	 0.044550,	 1532.900000,	 -0.000000,	 1188.333000,	 15230.557603,	 661.513989,	 2.317260 
0.675000,	 0.037129,	 0.044550,	 1532.900000,	 -0.000000,	 1188.333000,	 15230.557603,	 661.513989,	 2.317260 
0.705000,	 0.037129,	 0.044550,	 1532.900000,	 -0.000000,	 1188.333000,	 15230.557603,	 661.513989,	 2.317260 
0.735000,	 0.037129,	 0.044550,	 1532.900000,	 -0.000000,	 1188.333000,	 15230.557603,	 661.513989,	 2.317260 
0.765000,	 0.037129,	 0.044550,	 1532.900000,	 -0.000000,	 1188.333000,	 15230.557603,	 661.513989,	 2.317260 
0.795000,	 0.037129,	 0.044550,	 1532.900000,	 -0.000000,	 1188.333000,	 15230.557603,	 661.513989,	 2.317260 
0.825000,	 0.037129,	 0.044550,	 1532.900000,	 -0.000000,	 1188.333000,	 15230.557603,	 661.513989,	 2.317260 
0.855000,	 0.037129,	 0.044550,	 1532.900000,	 -0.000000,	 1188.333000,	 15230.557603,	 661.513989,	 2.317260 
0.885000,	 0.037129,	 0.044550,	 1532.900000,	 -0.000000,	 1188.333000,	 15230.557603,	 661.513989,	 2.317260 
0.915000,	 0.037129,	 0.044550,	 1532.900000,	 -0.000000,	 1188.333000,	 15230.557603,	 661.513989,	 2.317260 
0.945000,	 0.037129,	 0.044550,	 1532.900000,	 -0.000000,	 1188.333000,	 15230.557603,	 661.513989,	 2.317260 
0.975000,	 0.037129,	 0.044550,	 1532.900000,	 -0.000000,	 1188.333000,	 15230.557603,	 661.513989,	 2.317260 
1.005000,	 0.039567,	 0.044935,	 1529.731129,	 7.911663,	 1191.998871,	 15409.592151,	 662.533550,	 2.308942 
1.035000,	 0.045662,	 0.045997,	 1520.383222,	 27.692225,	 1202.570859,	 15913.589118,	 665.465111,	 2.285072 
1.065000,	 0.052976,	 0.047748,	 1505.877386,	 58.039463,	 1218.271005,	 16735.061323,	 669.795010,	 2.249935 
1.095000,	 0.060291,	 0.049847,	 1489.542169,	 91.986348,	 1234.937261,	 17709.805979,	 674.360930,	 2.213028 
1.125000,	 0.067605,	 0.051955,	 1473.963587,	 124.249702,	 1249.836749,	 18681.348871,	 678.416807,	 2.180358 
1.155000,	 0.074920,	 0.053853,	 1460.407116,	 152.348800,	 1262.005345,	 19552.352429,	 681.711391,	 2.153891 
1.185000,	 0.082234,	 0.055448,	 1449.191807,	 175.735989,	 1271.494259,	 20282.774041,	 684.269457,	 2.133382 
1.215000,	 0.089548,	 0.056733,	 1440.152033,	 194.820472,	 1278.735581,	 20871.045375,	 686.215192,	 2.117805 
1.245000,	 0.096863,	 0.057745,	 1432.936760,	 210.327287,	 1284.228243,	 21334.540549,	 687.687392,	 2.106030 
1.275000,	 0.104177,	 0.058535,	 1427.171224,	 223.001095,	 1288.409503,	 21697.119855,	 688.805987,	 2.097091 
1.305000,	 0.111491,	 0.059155,	 1422.522802,	 233.476289,	 1291.627677,	 21981.606139,	 689.665696,	 2.090224 
1.335000,	 0.118805,	 0.059646,	 1418.723370,	 242.259336,	 1294.143213,	 22207.303045,	 690.336956,	 2.084864 
1.365000,	 0.126120,	 0.060041,	 1415.568270,	 249.730158,	 1296.145580,	 22389.025152,	 690.870812,	 2.080603 
1.395000,	 0.133435,	 0.060365,	 1412.904535,	 256.175709,	 1297.770260,	 22537.902516,	 691.303670,	 2.077149 
1.425000,	 0.140749,	 0.060635,	 1410.620602,	 261.804488,	 1299.113488,	 22661.967904,	 691.661337,	 2.074295 
1.455000,	 0.148063,	 0.060863,	 1408.635710,	 266.774162,	 1300.242261,	 22767.044641,	 691.961756,	 2.071899 
1.485000,	 0.155378,	 0.061059,	 1406.890123,	 271.200736,	 1301.205391,	 22857.271783,	 692.217988,	 2.069855 
1.515000,	 0.162692,	 0.061229,	 1405.338823,	 275.176383,	 1302.038138,	 22935.734948,	 692.439456,	 2.068089 
1.545000,	 0.170006,	 0.061379,	 1403.948135,	 278.769360,	 1302.766762,	 23004.676416,	 692.633174,	 2.066544 
1.575000,	 0.177320,	 0.061512,	 1402.692874,	 282.035727,	 1303.409748,	 23065.814256,	 692.804079,	 2.065181 
1.605000,	 0.184635,	 0.061630,	 1401.552298,	 285.019270,	 1303.982533,	 23120.417571,	 692.956289,	 2.063968 
1.635000,	 0.191949,	 0.061737,	 1400.511174,	 287.756594,	 1304.495556,	 23169.529807,	 693.092590,	 2.062881 
1.665000,	 0.199264,	 0.061833,	 1399.555248,	 290.278048,	 1304.959059,	 23213.915122,	 693.215711,	 2.061900 
1.695000,	 0.206578,	 0.061921,	 1398.674426,	 292.608776,	 1305.379609,	 23254.284822,	 693.327403,	 2.061009 
1.725000,	 0.213892,	 0.062001,	 1397.859362,	 294.769509,	 1305.763660,	 23291.142364,	 693.429387,	 2.060196 
1.755000,	 0.221207,	 0.062074,	 1397.103416,	 296.778651,	 1306.115073,	 23324.946228,	 693.522690,	 2.059453 
1.785000,	 0.228521,	 0.062141,	 1396.399178,	 298.652220,	 1306.438876,	 23356.023373,	 693.608651,	 2.058767 
1.815000,	 0.235836,	 0.062203,	 1395.741739,	 300.403429,	 1306.737921,	 23384.744408,	 693.688030,	 2.058135 
1.845000,	 0.243150,	 0.062261,	 1395.126075,	 302.043718,	 1307.015471,	 23411.340600,	 693.761696,	 2.057548 
1.875000,	 0.250464,	 0.062314,	 1394.548911,	 303.583484,	 1307.273070,	 23436.053836,	 693.830059,	 2.057003 
1.905000,	 0.257779,	 0.062364,	 1394.005761,	 305.032169,	 1307.513690,	 23459.042046,	 693.893910,	 2.056494 
1.935000,	 0.265093,	 0.062410,	 1393.494004,	 306.397419,	 1307.738668,	 23480.527703,	 693.953605,	 2.056018 
1.965000,	 0.272407,	 0.062454,	 1393.010907,	 307.686368,	 1307.949526,	 23500.623594,	 694.009549,	 2.055572 
1.995000,	 0.278502,	 0.060152,	 1409.620825,	 288.838319,	 1294.526107,	 22402.089994,	 690.439072,	 2.084049 
2.025000,	 0.280941,	 0.053826,	 1449.617785,	 229.094335,	 1262.812528,	 19555.127271,	 681.929368,	 2.152142 