TITLE = "Final State"
VARIABLES = "X", "Y", "rho", "u", "v", "T", "p", "c", "M"
ZONE I=200, J=100, DATAPACKING=POINT
0.040750,	 0.006463,	 0.043964,	 1532.597067,	 0.583633,	 1184.000338,	 14944.371988,	 689.849799,	 2.221639 
0.122250,	 0.006499,	 0.043461,	 1535.943148,	 0.574516,	 1179.609792,	 14718.729806,	 688.569551,	 2.230629 
0.203750,	 0.006548,	 0.043223,	 1537.548394,	 0.309788,	 1177.503140,	 14611.809360,	 687.954421,	 2.234957 
0.285250,	 0.006601,	 0.043167,	 1537.934880,	 0.092208,	 1177.000089,	 14586.636937,	 687.807452,	 2.235996 
0.366750,	 0.006656,	 0.043187,	 1537.807400,	 -0.012145,	 1177.172718,	 14595.715117,	 687.857890,	 2.235647 
0.448250,	 0.006713,	 0.043224,	 1537.572119,	 -0.040704,	 1177.485316,	 14611.942683,	 687.949215,	 2.235008 
0.529750,	 0.006772,	 0.043254,	 1537.378603,	 -0.037240,	 1177.740726,	 14625.345508,	 688.023822,	 2.234485 
0.611250,	 0.006832,	 0.043274,	 1537.252209,	 -0.026095,	 1177.905904,	 14634.231039,	 688.072069,	 2.234144 
0.692750,	 0.006895,	 0.043287,	 1537.178993,	 -0.016220,	 1177.999025,	 14639.525205,	 688.099266,	 2.233949 
0.774250,	 0.006959,	 0.043293,	 1537.142314,	 -0.009135,	 1178.042507,	 14642.349758,	 688.111966,	 2.233855 
0.855750,	 0.007024,	 0.043296,	 1537.133508,	 -0.003736,	 1178.047904,	 14643.289327,	 688.113542,	 2.233837 
0.937250,	 0.007090,	 0.043294,	 1537.154422,	 0.001822,	 1178.012686,	 14642.222846,	 688.103256,	 2.233901 
1.018750,	 0.007158,	 0.043286,	 1537.218696,	 0.009713,	 1177.918968,	 14638.244938,	 688.075884,	 2.234083 
1.100250,	 0.007226,	 0.043267,	 1537.353638,	 0.022535,	 1177.731105,	 14629.543041,	 688.021012,	 2.234457 
1.181750,	 0.007295,	 0.043231,	 1537.602505,	 0.043435,	 1177.392298,	 14613.242466,	 687.922041,	 2.235141 
1.263250,	 0.007366,	 0.043169,	 1538.026269,	 0.076058,	 1176.822482,	 14585.300727,	 687.755556,	 2.236298 
1.344750,	 0.007437,	 0.043070,	 1538.703206,	 0.124229,	 1175.919154,	 14540.558547,	 687.491545,	 2.238141 
1.426250,	 0.007509,	 0.042919,	 1539.725693,	 0.191535,	 1174.560630,	 14472.972534,	 687.094305,	 2.240923 
1.507750,	 0.007582,	 0.042703,	 1541.193753,	 0.280709,	 1172.614748,	 14376.105006,	 686.524918,	 2.244920 
1.589250,	 0.007655,	 0.042406,	 1543.206119,	 0.393133,	 1169.949976,	 14243.783377,	 685.744409,	 2.250410 
1.670750,	 0.007729,	 0.042017,	 1545.850945,	 0.528674,	 1166.446682,	 14070.783894,	 684.716944,	 2.257650 
1.752250,	 0.007804,	 0.041526,	 1549.196097,	 0.685405,	 1162.010282,	 13853.555974,	 683.413596,	 2.266850 
1.833750,	 0.007878,	 0.040929,	 1553.283365,	 0.860096,	 1156.577843,	 13590.618980,	 681.814233,	 2.278162 
1.915250,	 0.007954,	 0.040227,	 1558.126289,	 1.048780,	 1150.120906,	 13282.680890,	 679.908355,	 2.291672 
1.996750,	 0.008030,	 0.039423,	 1563.708638,	 1.246678,	 1142.648950,	 12932.685898,	 677.696186,	 2.307390 
2.078250,	 0.008106,	 0.038527,	 1569.990582,	 1.449409,	 1134.201170,	 12545.262040,	 675.186383,	 2.325271 
2.159750,	 0.008183,	 0.037550,	 1576.912954,	 1.652820,	 1124.842718,	 12126.325968,	 672.395084,	 2.345219 
2.241250,	 0.008260,	 0.036506,	 1584.403675,	 1.853277,	 1114.656626,	 11682.497744,	 669.343700,	 2.367102 
2.322750,	 0.008337,	 0.035410,	 1592.383044,	 2.047782,	 1103.737555,	 11220.626363,	 666.057218,	 2.390762 
2.404250,	 0.008415,	 0.034275,	 1600.765710,	 2.233564,	 1092.190134,	 10747.581811,	 662.563876,	 2.416020 
2.485750,	 0.008493,	 0.033117,	 1609.467913,	 2.408766,	 1080.119117,	 10269.707617,	 658.892335,	 2.442690 
2.567250,	 0.008571,	 0.031949,	 1618.410351,	 2.572263,	 1067.625723,	 9792.627310,	 655.070653,	 2.470592 
2.648750,	 0.008649,	 0.030780,	 1627.519450,	 2.723394,	 1054.805956,	 9321.183262,	 651.125818,	 2.499550 
2.730250,	 0.008727,	 0.029622,	 1636.728819,	 2.861886,	 1041.748434,	 8859.382241,	 647.083100,	 2.529399 
2.811750,	 0.008806,	 0.028482,	 1645.979872,	 2.987773,	 1028.533253,	 8410.410886,	 642.965689,	 2.559985 
2.893250,	 0.008885,	 0.027367,	 1655.221821,	 3.101299,	 1015.231680,	 7976.698051,	 638.794561,	 2.591169 
2.974750,	 0.008963,	 0.026282,	 1664.411800,	 3.202975,	 1001.905583,	 7559.972262,	 634.588252,	 2.622826 
3.056250,	 0.009042,	 0.025232,	 1673.513714,	 3.293440,	 988.609152,	 7161.392832,	 630.363332,	 2.654845 
3.137750,	 0.009121,	 0.024217,	 1682.497594,	 3.373323,	 975.388722,	 6781.645586,	 626.134298,	 2.687125 
3.219250,	 0.009200,	 0.023242,	 1691.339622,	 3.443282,	 962.281683,	 6420.991020,	 621.913148,	 2.719581 
3.300750,	 0.009278,	 0.022306,	 1700.020734,	 3.503970,	 949.319413,	 6079.379357,	 617.710253,	 2.752139 
3.382250,	 0.009357,	 0.021410,	 1708.525858,	 3.556005,	 936.528204,	 5756.525844,	 613.534600,	 2.784732 
3.463750,	 0.009436,	 0.020553,	 1716.843111,	 3.599879,	 923.930267,	 5451.978904,	 609.394074,	 2.817302 
3.545250,	 0.009514,	 0.019737,	 1724.964446,	 3.636293,	 911.542477,	 5165.111001,	 605.294998,	 2.849798 
3.626750,	 0.009592,	 0.018958,	 1732.883936,	 3.665845,	 899.378873,	 4895.221508,	 601.242912,	 2.882176 
3.708250,	 0.009671,	 0.018218,	 1740.597218,	 3.688916,	 887.451399,	 4641.573613,	 597.242794,	 2.914395 
3.789750,	 0.009749,	 0.017513,	 1748.102176,	 3.705951,	 875.768684,	 4403.371917,	 593.298615,	 2.946419 
3.871250,	 0.009827,	 0.016844,	 1755.398366,	 3.717453,	 864.336805,	 4179.796003,	 589.413573,	 2.978218 
3.952750,	 0.009905,	 0.016208,	 1762.486239,	 3.723826,	 853.160461,	 3970.038649,	 585.590455,	 3.009766 
4.034250,	 0.009983,	 0.015605,	 1769.367003,	 3.725359,	 842.243132,	 3773.312999,	 581.831685,	 3.041036 
4.115750,	 0.010060,	 0.015032,	 1776.042979,	 3.722419,	 831.586414,	 3588.838716,	 578.139073,	 3.072006 
4.197250,	 0.010137,	 0.014489,	 1782.516532,	 3.715140,	 821.191757,	 3415.884674,	 574.514402,	 3.102656 
4.278750,	 0.010214,	 0.013973,	 1788.791330,	 3.703922,	 811.058291,	 3253.718530,	 570.958659,	 3.132968 
4.360250,	 0.010291,	 0.013484,	 1794.870796,	 3.688971,	 801.185404,	 3101.664731,	 567.472922,	 3.162926 
4.441750,	 0.010367,	 0.013021,	 1800.758736,	 3.670505,	 791.571658,	 2959.078490,	 564.057979,	 3.192513 
4.523250,	 0.010444,	 0.012581,	 1806.459059,	 3.648690,	 782.215256,	 2825.353624,	 560.714478,	 3.221716 
4.604750,	 0.010520,	 0.012164,	 1811.975786,	 3.623686,	 773.113992,	 2699.919832,	 557.442910,	 3.250520 
4.686250,	 0.010595,	 0.011769,	 1817.313090,	 3.595692,	 764.265147,	 2582.238077,	 554.243561,	 3.278913 
4.767750,	 0.010671,	 0.011393,	 1822.475020,	 3.564738,	 755.666074,	 2471.808657,	 551.116726,	 3.306883 
4.849250,	 0.010745,	 0.011038,	 1827.465808,	 3.530970,	 747.313579,	 2368.157717,	 548.062473,	 3.334418 
4.930750,	 0.010820,	 0.010700,	 1832.289290,	 3.494384,	 739.204968,	 2270.853621,	 545.081030,	 3.361505 
5.012250,	 0.010894,	 0.010380,	 1836.949640,	 3.455153,	 731.336725,	 2179.481389,	 542.172294,	 3.388135 
5.093750,	 0.010968,	 0.010077,	 1841.450441,	 3.413225,	 723.706193,	 2093.669134,	 539.336452,	 3.414295 
5.175250,	 0.011041,	 0.009789,	 1845.795651,	 3.368756,	 716.309832,	 2013.056852,	 536.573333,	 3.439975 
5.256750,	 0.011114,	 0.009516,	 1849.988595,	 3.321655,	 709.145061,	 1937.324291,	 533.883096,	 3.465162 
5.338250,	 0.011186,	 0.009257,	 1854.032986,	 3.272073,	 702.208391,	 1866.159421,	 531.265527,	 3.489848 
5.419750,	 0.011258,	 0.009011,	 1857.931999,	 3.219981,	 695.497135,	 1799.283156,	 528.720685,	 3.514019 
5.501250,	 0.011330,	 0.008778,	 1861.688881,	 3.165442,	 689.008296,	 1736.430809,	 526.248480,	 3.537666 
5.582750,	 0.011401,	 0.008557,	 1865.306583,	 3.108439,	 682.739254,	 1677.360727,	 523.848935,	 3.560777 
5.664250,	 0.011472,	 0.008348,	 1868.788003,	 3.048991,	 676.687327,	 1621.846507,	 521.522021,	 3.583340 
5.745750,	 0.011542,	 0.008150,	 1872.135863,	 2.987097,	 670.850000,	 1569.678934,	 519.267738,	 3.605343 
5.827250,	 0.011611,	 0.007962,	 1875.352721,	 2.922723,	 665.224932,	 1520.664927,	 517.086129,	 3.626775 
5.908750,	 0.011680,	 0.007785,	 1878.441111,	 2.855905,	 659.809662,	 1474.622490,	 514.977156,	 3.647624 
5.990250,	 0.011748,	 0.007616,	 1881.403431,	 2.786689,	 654.601853,	 1431.382919,	 512.940800,	 3.667880 
6.071750,	 0.011816,	 0.007457,	 1884.241930,	 2.715127,	 649.599303,	 1390.790078,	 510.977061,	 3.687531 
6.153250,	 0.011884,	 0.007307,	 1886.958644,	 2.641190,	 644.800122,	 1352.701882,	 509.086036,	 3.706565 
6.234750,	 0.011951,	 0.007165,	 1889.555676,	 2.564969,	 640.202142,	 1316.982282,	 507.267678,	 3.724971 
6.316250,	 0.012017,	 0.007031,	 1892.034843,	 2.486404,	 635.803682,	 1283.509947,	 505.522102,	 3.742737 
6.397750,	 0.012082,	 0.006905,	 1894.398159,	 2.405655,	 631.602507,	 1252.165316,	 503.849175,	 3.759855 
6.479250,	 0.012147,	 0.006787,	 1896.647336,	 2.322707,	 627.596930,	 1222.842982,	 502.248947,	 3.776312 
6.560750,	 0.012211,	 0.006675,	 1898.784261,	 2.237754,	 623.784748,	 1195.439074,	 500.721229,	 3.792101 
6.642250,	 0.012274,	 0.006571,	 1900.810589,	 2.150833,	 620.164195,	 1169.861648,	 499.265979,	 3.807213 
6.723750,	 0.012337,	 0.006472,	 1902.728120,	 2.062159,	 616.733051,	 1146.020488,	 497.882935,	 3.821640 
6.805250,	 0.012400,	 0.006381,	 1904.538463,	 1.971729,	 613.489542,	 1123.836721,	 496.571981,	 3.835374 
6.886750,	 0.012461,	 0.006295,	 1906.243511,	 1.879878,	 610.431056,	 1103.228922,	 495.332632,	 3.848413 
6.968250,	 0.012521,	 0.006215,	 1907.845000,	 1.786731,	 607.555365,	 1084.125519,	 494.164518,	 3.860750 
7.049750,	 0.012582,	 0.006141,	 1909.344816,	 1.692600,	 604.859744,	 1066.455777,	 493.067037,	 3.872385 
7.131250,	 0.012641,	 0.006073,	 1910.744826,	 1.597568,	 602.341700,	 1050.156886,	 492.039643,	 3.883316 
7.212750,	 0.012699,	 0.006009,	 1912.047130,	 1.502087,	 599.997877,	 1035.163247,	 491.081401,	 3.893545 
7.294250,	 0.012757,	 0.005951,	 1913.253844,	 1.406323,	 597.825159,	 1021.416683,	 490.191440,	 3.903076 
7.375750,	 0.012814,	 0.005898,	 1914.367275,	 1.310759,	 595.819655,	 1008.857204,	 489.368535,	 3.911914 
7.457250,	 0.012870,	 0.005849,	 1915.389849,	 1.215625,	 593.977530,	 997.430034,	 488.611447,	 3.920068 
7.538750,	 0.012925,	 0.005805,	 1916.324139,	 1.121414,	 592.294252,	 987.079200,	 487.918616,	 3.927549 
7.620250,	 0.012979,	 0.005765,	 1917.172911,	 1.028306,	 590.765360,	 977.753244,	 487.288475,	 3.934370 
7.701750,	 0.013033,	 0.005729,	 1917.938990,	 0.936805,	 589.385682,	 969.399166,	 486.719134,	 3.940546 
7.783250,	 0.013086,	 0.005697,	 1918.625425,	 0.847167,	 588.149999,	 961.967018,	 486.208648,	 3.946095 
7.864750,	 0.013137,	 0.005669,	 1919.235335,	 0.759804,	 587.052610,	 955.406658,	 485.754845,	 3.951037 
7.946250,	 0.013188,	 0.005644,	 1919.772088,	 0.674991,	 586.087641,	 949.669541,	 485.355450,	 3.955394 
8.027750,	 0.013238,	 0.005622,	 1920.239143,	 0.593095,	 585.248816,	 944.707069,	 485.007999,	 3.959191 
8.109250,	 0.013288,	 0.005604,	 1920.640142,	 0.514430,	 584.529611,	 940.471289,	 484.709897,	 3.962453 
8.190750,	 0.013336,	 0.005589,	 1920.978888,	 0.439286,	 583.923253,	 936.914631,	 484.458426,	 3.965209 
8.272250,	 0.013384,	 0.005576,	 1921.259228,	 0.367966,	 583.422704,	 933.989721,	 484.250739,	 3.967489 
8.353750,	 0.013430,	 0.005566,	 1921.485315,	 0.300668,	 583.020859,	 931.649949,	 484.083941,	 3.969323 
8.435250,	 0.013475,	 0.005558,	 1921.660893,	 0.237687,	 582.710285,	 929.848676,	 483.954989,	 3.970743 
8.516750,	 0.013519,	 0.005552,	 1921.790269,	 0.179115,	 582.483724,	 928.540555,	 483.860897,	 3.971783 
8.598250,	 0.013562,	 0.005549,	 1921.877156,	 0.125112,	 582.333717,	 927.680859,	 483.798589,	 3.972474 
8.679750,	 0.013605,	 0.005547,	 1921.925780,	 0.075703,	 582.253056,	 927.226087,	 483.765082,	 3.972849 
8.761250,	 0.013647,	 0.005546,	 1921.939838,	 0.030911,	 582.234522,	 927.134022,	 483.757382,	 3.972942 
8.842750,	 0.013688,	 0.005547,	 1921.923532,	 -0.009301,	 582.271217,	 927.363566,	 483.772626,	 3.972783 
8.924250,	 0.013728,	 0.005550,	 1921.880297,	 -0.045006,	 582.356318,	 927.875566,	 483.807977,	 3.972403 
9.005750,	 0.013767,	 0.005553,	 1921.813859,	 -0.076317,	 582.483379,	 928.632340,	 483.860754,	 3.971832 
9.087250,	 0.013805,	 0.005557,	 1921.727530,	 -0.103392,	 582.646217,	 929.598334,	 483.928383,	 3.971099 
9.168750,	 0.013843,	 0.005562,	 1921.624271,	 -0.126440,	 582.838979,	 930.740299,	 484.008427,	 3.970229 
9.250250,	 0.013881,	 0.005568,	 1921.507047,	 -0.145676,	 583.056229,	 932.026939,	 484.098625,	 3.969247 
9.331750,	 0.013918,	 0.005574,	 1921.378738,	 -0.161325,	 583.292944,	 933.428987,	 484.196884,	 3.968177 
9.413250,	 0.013953,	 0.005580,	 1921.242849,	 -0.173533,	 583.544646,	 934.918225,	 484.301343,	 3.967040 
9.494750,	 0.013986,	 0.005587,	 1921.100634,	 -0.182699,	 583.806903,	 936.471470,	 484.410158,	 3.965855 
9.576250,	 0.014019,	 0.005594,	 1920.954079,	 -0.189088,	 584.075881,	 938.066660,	 484.521737,	 3.964640 
9.657750,	 0.014052,	 0.005601,	 1920.805114,	 -0.192949,	 584.348170,	 939.683699,	 484.634663,	 3.963408 
9.739250,	 0.014086,	 0.005608,	 1920.655460,	 -0.194531,	 584.620735,	 941.304610,	 484.747677,	 3.962176 
9.820750,	 0.014119,	 0.005615,	 1920.506568,	 -0.194085,	 584.890896,	 942.913562,	 484.859668,	 3.960953 
9.902250,	 0.014151,	 0.005622,	 1920.359707,	 -0.191852,	 585.156318,	 944.496655,	 484.969670,	 3.959752 
9.983750,	 0.014183,	 0.005629,	 1920.216191,	 -0.188037,	 585.415043,	 946.041575,	 485.076872,	 3.958581 
10.065250,	 0.014215,	 0.005635,	 1920.076624,	 -0.182889,	 585.665288,	 947.538406,	 485.180538,	 3.957448 
10.146750,	 0.014244,	 0.005642,	 1919.942927,	 -0.176499,	 585.905921,	 948.977070,	 485.280201,	 3.956360 
10.228250,	 0.014270,	 0.005648,	 1919.814686,	 -0.169172,	 586.135495,	 950.351560,	 485.375264,	 3.955320 
10.309750,	 0.014296,	 0.005653,	 1919.692190,	 -0.161072,	 586.352987,	 951.656144,	 485.465308,	 3.954334 
10.391250,	 0.014323,	 0.005658,	 1919.575843,	 -0.152330,	 586.557622,	 952.885942,	 485.550013,	 3.953405 
10.472750,	 0.014349,	 0.005663,	 1919.466031,	 -0.143061,	 586.748816,	 954.036996,	 485.629142,	 3.952535 
10.554250,	 0.014376,	 0.005668,	 1919.362967,	 -0.133377,	 586.926108,	 955.106325,	 485.702505,	 3.951725 
10.635750,	 0.014403,	 0.005672,	 1919.266806,	 -0.123374,	 587.089165,	 956.091707,	 485.769968,	 3.950979 
10.717250,	 0.014429,	 0.005676,	 1919.177871,	 -0.113126,	 587.237852,	 956.991414,	 485.831478,	 3.950295 
10.798750,	 0.014455,	 0.005680,	 1919.096012,	 -0.102718,	 587.371980,	 957.804641,	 485.886958,	 3.949676 
10.880250,	 0.014480,	 0.005683,	 1919.021308,	 -0.092206,	 587.491535,	 958.530847,	 485.936404,	 3.949120 
10.961750,	 0.014504,	 0.005686,	 1918.953758,	 -0.081644,	 587.596556,	 959.169941,	 485.979836,	 3.948628 
11.043250,	 0.014528,	 0.005688,	 1918.893095,	 -0.071076,	 587.687036,	 959.722308,	 486.017251,	 3.948200 
11.124750,	 0.014551,	 0.005690,	 1918.839532,	 -0.060537,	 587.763221,	 960.188327,	 486.048752,	 3.947833 
11.206250,	 0.014574,	 0.005692,	 1918.792616,	 -0.050057,	 587.825123,	 960.568951,	 486.074346,	 3.947529 
11.287750,	 0.014594,	 0.005693,	 1918.753045,	 -0.039671,	 587.873301,	 960.864857,	 486.094265,	 3.947286 
11.369250,	 0.014612,	 0.005694,	 1918.720314,	 -0.029399,	 587.907838,	 961.077460,	 486.108544,	 3.947103 
11.450750,	 0.014628,	 0.005695,	 1918.693650,	 -0.019242,	 587.928676,	 961.208232,	 486.117159,	 3.946978 
11.532250,	 0.014646,	 0.005695,	 1918.672311,	 -0.009192,	 587.935735,	 961.258534,	 486.120077,	 3.946910 
11.613750,	 0.014666,	 0.005695,	 1918.656820,	 0.000710,	 587.929571,	 961.229550,	 486.117529,	 3.946899 
11.695250,	 0.014686,	 0.005694,	 1918.647118,	 0.010449,	 587.910509,	 961.122828,	 486.109648,	 3.946943 
11.776750,	 0.014705,	 0.005693,	 1918.642955,	 0.020022,	 587.878789,	 960.940023,	 486.096534,	 3.947041 
11.858250,	 0.014724,	 0.005692,	 1918.644136,	 0.029421,	 587.834691,	 960.682847,	 486.078302,	 3.947191 
11.939750,	 0.014742,	 0.005691,	 1918.650622,	 0.038624,	 587.778605,	 960.353125,	 486.055113,	 3.947393 
12.021250,	 0.014759,	 0.005689,	 1918.661990,	 0.047642,	 587.710707,	 959.952724,	 486.027039,	 3.947645 
12.102750,	 0.014776,	 0.005687,	 1918.678185,	 0.056448,	 587.631410,	 959.483629,	 485.994249,	 3.947944 
12.184250,	 0.014793,	 0.005685,	 1918.698891,	 0.065044,	 587.540985,	 958.947882,	 485.956855,	 3.948291 
12.265750,	 0.014809,	 0.005682,	 1918.723883,	 0.073415,	 587.439769,	 958.347618,	 485.914995,	 3.948682 
12.347250,	 0.014824,	 0.005680,	 1918.753027,	 0.081538,	 587.328196,	 957.685136,	 485.868848,	 3.949117 
12.428750,	 0.014840,	 0.005676,	 1918.785940,	 0.089420,	 587.206538,	 956.962726,	 485.818524,	 3.949594 
12.510250,	 0.014853,	 0.005673,	 1918.822843,	 0.096971,	 587.075570,	 956.183189,	 485.764344,	 3.950111 
12.591750,	 0.014865,	 0.005669,	 1918.863123,	 0.104243,	 586.935478,	 955.349018,	 485.706382,	 3.950665 
12.673250,	 0.014876,	 0.005666,	 1918.906354,	 0.111240,	 586.786562,	 954.462766,	 485.644762,	 3.951255 
12.754750,	 0.014887,	 0.005662,	 1918.952285,	 0.117932,	 586.629290,	 953.527232,	 485.579676,	 3.951879 
12.836250,	 0.014898,	 0.005657,	 1919.000599,	 0.124302,	 586.464109,	 952.545323,	 485.511307,	 3.952535 
12.917750,	 0.014909,	 0.005653,	 1919.050902,	 0.130350,	 586.291413,	 951.519980,	 485.439817,	 3.953221 
12.999250,	 0.014921,	 0.005648,	 1919.102931,	 0.136040,	 586.111757,	 950.454444,	 485.365436,	 3.953934 
13.080750,	 0.014933,	 0.005644,	 1919.156433,	 0.141332,	 585.925776,	 949.352209,	 485.288423,	 3.954672 
13.162250,	 0.014944,	 0.005639,	 1919.211159,	 0.146175,	 585.734205,	 948.217074,	 485.209083,	 3.955431 
13.243750,	 0.014955,	 0.005634,	 1919.266597,	 0.150595,	 585.537507,	 947.052604,	 485.127606,	 3.956210 
13.325250,	 0.014966,	 0.005629,	 1919.322385,	 0.154551,	 585.336376,	 945.862773,	 485.044279,	 3.957004 
13.406750,	 0.014976,	 0.005623,	 1919.378094,	 0.158018,	 585.131492,	 944.651698,	 484.959382,	 3.957812 
13.488250,	 0.014986,	 0.005618,	 1919.433245,	 0.160979,	 584.923528,	 943.423621,	 484.873194,	 3.958629 
13.569750,	 0.014996,	 0.005613,	 1919.487409,	 0.163375,	 584.713354,	 942.183259,	 484.786074,	 3.959452 
13.651250,	 0.015005,	 0.005607,	 1919.540018,	 0.165207,	 584.501667,	 940.935209,	 484.698311,	 3.960278 
13.732750,	 0.015013,	 0.005602,	 1919.590536,	 0.166430,	 584.289332,	 939.684494,	 484.610263,	 3.961102 
13.814250,	 0.015022,	 0.005596,	 1919.638380,	 0.167006,	 584.077262,	 938.436409,	 484.522310,	 3.961919 
13.895750,	 0.015030,	 0.005591,	 1919.682910,	 0.166909,	 583.866348,	 937.196372,	 484.434820,	 3.962727 
13.977250,	 0.015037,	 0.005586,	 1919.723459,	 0.166058,	 583.657757,	 935.970603,	 484.348278,	 3.963519 
14.058750,	 0.015043,	 0.005580,	 1919.759271,	 0.164453,	 583.452409,	 934.764930,	 484.263067,	 3.964290 
14.140250,	 0.015048,	 0.005575,	 1919.789573,	 0.162058,	 583.251368,	 933.585596,	 484.179628,	 3.965036 
14.221750,	 0.015053,	 0.005570,	 1919.813534,	 0.158823,	 583.055817,	 932.439372,	 484.098454,	 3.965750 
14.303250,	 0.015058,	 0.005566,	 1919.830265,	 0.154705,	 582.866963,	 931.333253,	 484.020047,	 3.966427 
14.384750,	 0.015063,	 0.005561,	 1919.838818,	 0.149658,	 582.686086,	 930.274628,	 483.944940,	 3.967060 
14.466250,	 0.015069,	 0.005557,	 1919.838171,	 0.143629,	 582.514555,	 929.271364,	 483.873703,	 3.967643 
14.547750,	 0.015074,	 0.005552,	 1919.827216,	 0.136555,	 582.353846,	 928.331852,	 483.806950,	 3.968168 
14.629250,	 0.015080,	 0.005549,	 1919.804727,	 0.128368,	 582.205554,	 927.464990,	 483.745348,	 3.968627 
14.710750,	 0.015084,	 0.005545,	 1919.769437,	 0.119019,	 582.071262,	 926.679932,	 483.689554,	 3.969012 
14.792250,	 0.015089,	 0.005542,	 1919.719979,	 0.108447,	 581.952674,	 925.986410,	 483.640279,	 3.969314 
14.873750,	 0.015093,	 0.005540,	 1919.654860,	 0.096587,	 581.851616,	 925.394721,	 483.598285,	 3.969524 
14.955250,	 0.015097,	 0.005538,	 1919.572540,	 0.083374,	 581.769959,	 924.915669,	 483.564349,	 3.969632 
15.036750,	 0.015101,	 0.005536,	 1919.471303,	 0.068739,	 581.709737,	 924.560714,	 483.539320,	 3.969628 
15.118250,	 0.015105,	 0.005535,	 1919.349367,	 0.052611,	 581.673048,	 924.341903,	 483.524072,	 3.969501 
15.199750,	 0.015108,	 0.005535,	 1919.204900,	 0.034911,	 581.662075,	 924.271959,	 483.519511,	 3.969240 
15.281250,	 0.015110,	 0.005535,	 1919.035274,	 0.015613,	 581.679435,	 924.364245,	 483.526726,	 3.968830 
15.362750,	 0.015111,	 0.005536,	 1918.838783,	 -0.005393,	 581.727286,	 924.632695,	 483.546614,	 3.968260 
15.444250,	 0.015111,	 0.005538,	 1918.613316,	 -0.028204,	 581.808148,	 925.092281,	 483.580220,	 3.967518 
15.525750,	 0.015113,	 0.005541,	 1918.356869,	 -0.052952,	 581.924636,	 925.759016,	 483.628628,	 3.966591 
15.607250,	 0.015115,	 0.005545,	 1918.066546,	 -0.079661,	 582.079774,	 926.649556,	 483.693090,	 3.965462 
15.688750,	 0.015117,	 0.005550,	 1917.739625,	 -0.108395,	 582.276548,	 927.781309,	 483.774840,	 3.964116 
15.770250,	 0.015119,	 0.005556,	 1917.373314,	 -0.139225,	 582.518040,	 929.172531,	 483.875150,	 3.962537 
15.851750,	 0.015120,	 0.005563,	 1916.964799,	 -0.172230,	 582.807435,	 930.842410,	 483.995330,	 3.960709 
15.933250,	 0.015122,	 0.005572,	 1916.510909,	 -0.207439,	 583.148074,	 932.810831,	 484.136752,	 3.958615 
16.014750,	 0.015123,	 0.005582,	 1916.008629,	 -0.244920,	 583.543339,	 935.098633,	 484.300801,	 3.956237 
16.096250,	 0.015124,	 0.005593,	 1915.454765,	 -0.284706,	 583.996720,	 937.727403,	 484.488902,	 3.953558 
16.177750,	 0.015125,	 0.005606,	 1914.845836,	 -0.326770,	 584.511785,	 940.719199,	 484.702506,	 3.950559 
16.259250,	 0.015126,	 0.005620,	 1914.178700,	 -0.371149,	 585.092082,	 944.096949,	 484.943050,	 3.947224 
0.040750,	 0.019388,	 0.043952,	 1532.595465,	 1.775616,	 1183.382828,	 14932.585927,	 689.669882,	 2.222218 
0.122250,	 0.019497,	 0.043474,	 1535.777626,	 1.688178,	 1179.195210,	 14717.895450,	 688.448539,	 2.230782 
0.203750,	 0.019645,	 0.043249,	 1537.286210,	 0.903740,	 1177.179473,	 14616.786315,	 687.859864,	 2.234883 
0.285250,	 0.019802,	 0.043194,	 1537.662855,	 0.275187,	 1176.635547,	 14591.308089,	 687.700930,	 2.235947 
0.366750,	 0.019967,	 0.043211,	 1537.551937,	 -0.027455,	 1176.723900,	 14598.243664,	 687.726749,	 2.235702 
0.448250,	 0.020138,	 0.043246,	 1537.326023,	 -0.113442,	 1176.957531,	 14612.814884,	 687.795017,	 2.235151 
0.529750,	 0.020315,	 0.043276,	 1537.129330,	 -0.106352,	 1177.147595,	 14625.420585,	 687.850550,	 2.234685 
0.611250,	 0.020497,	 0.043298,	 1536.991793,	 -0.075554,	 1177.255784,	 14634.061591,	 687.882159,	 2.234382 
0.692750,	 0.020684,	 0.043312,	 1536.903892,	 -0.047302,	 1177.292844,	 14639.347298,	 687.892986,	 2.234219 
0.774250,	 0.020877,	 0.043321,	 1536.851643,	 -0.026577,	 1177.278763,	 14642.222930,	 687.888872,	 2.234157 
0.855750,	 0.021072,	 0.043326,	 1536.827398,	 -0.010505,	 1177.223817,	 14643.201224,	 687.872820,	 2.234174 
0.937250,	 0.021270,	 0.043326,	 1536.833271,	 0.006197,	 1177.124591,	 14642.137144,	 687.843829,	 2.234276 
1.018750,	 0.021473,	 0.043320,	 1536.883044,	 0.029945,	 1176.963141,	 14638.114920,	 687.796657,	 2.234502 
1.100250,	 0.021678,	 0.043304,	 1537.004233,	 0.068485,	 1176.704401,	 14629.311572,	 687.721051,	 2.234924 
1.181750,	 0.021886,	 0.043270,	 1537.240280,	 0.131233,	 1176.291719,	 14612.839818,	 687.600445,	 2.235659 
1.263250,	 0.022097,	 0.043211,	 1537.652339,	 0.229098,	 1175.645485,	 14584.645017,	 687.411541,	 2.236873 
1.344750,	 0.022311,	 0.043113,	 1538.318879,	 0.373527,	 1174.665004,	 14539.561000,	 687.124833,	 2.238776 
1.426250,	 0.022527,	 0.042964,	 1539.332227,	 0.575253,	 1173.230019,	 14471.547621,	 686.705005,	 2.241621 
1.507750,	 0.022746,	 0.042748,	 1540.792213,	 0.842490,	 1171.210755,	 14374.182371,	 686.113801,	 2.245681 
1.589250,	 0.022966,	 0.042452,	 1542.797216,	 1.179454,	 1168.478504,	 14241.319227,	 685.313036,	 2.251231 
1.670750,	 0.023187,	 0.042063,	 1545.434843,	 1.585805,	 1164.915754,	 14067.768980,	 684.267461,	 2.258526 
1.752250,	 0.023411,	 0.041572,	 1548.772530,	 2.055923,	 1160.430961,	 13850.016783,	 682.949015,	 2.267774 
1.833750,	 0.023635,	 0.040975,	 1552.851673,	 2.580158,	 1154.963256,	 13586.615182,	 681.338160,	 2.279124 
1.915250,	 0.023861,	 0.040271,	 1557.685457,	 3.146456,	 1148.484656,	 13278.299494,	 679.424538,	 2.292659 
1.996750,	 0.024089,	 0.039465,	 1563.257574,	 3.740445,	 1141.005175,	 12928.031575,	 677.208556,	 2.308391 
2.078250,	 0.024319,	 0.038568,	 1569.527887,	 4.348869,	 1132.561263,	 12540.450518,	 674.698090,	 2.326276 
2.159750,	 0.024549,	 0.037589,	 1576.437114,	 4.959475,	 1123.214877,	 12121.468753,	 671.908372,	 2.346220 
2.241250,	 0.024780,	 0.036544,	 1583.913178,	 5.561296,	 1113.046665,	 11677.697522,	 668.860140,	 2.368093 
2.322750,	 0.025012,	 0.035446,	 1591.876575,	 6.145227,	 1102.149865,	 11215.969469,	 665.577995,	 2.391738 
2.404250,	 0.025245,	 0.034310,	 1600.242320,	 6.703078,	 1090.628386,	 10743.135284,	 662.089999,	 2.416977 
2.485750,	 0.025478,	 0.033151,	 1608.927011,	 7.229235,	 1078.586239,	 10265.518407,	 658.424628,	 2.443626 
2.567250,	 0.025712,	 0.031981,	 1617.851665,	 7.720304,	 1066.123941,	 9788.723945,	 654.609762,	 2.471503 
2.648750,	 0.025947,	 0.030811,	 1626.942977,	 8.174303,	 1053.336930,	 9317.579641,	 650.672249,	 2.500435 
2.730250,	 0.026182,	 0.029652,	 1636.134775,	 8.590409,	 1040.313345,	 8856.081193,	 646.637243,	 2.530255 
2.811750,	 0.026418,	 0.028511,	 1645.368636,	 8.968709,	 1027.132884,	 8407.407159,	 642.527834,	 2.560812 
2.893250,	 0.026654,	 0.027395,	 1654.593893,	 9.309926,	 1013.866483,	 7973.980886,	 638.364919,	 2.591966 
2.974750,	 0.026890,	 0.026309,	 1663.767756,	 9.615576,	 1000.575686,	 7557.526660,	 634.166946,	 2.623592 
3.056250,	 0.027126,	 0.025257,	 1672.854187,	 9.887579,	 987.314487,	 7159.200824,	 629.950440,	 2.655579 
3.137750,	 0.027362,	 0.024242,	 1681.823272,	 10.127805,	 974.128845,	 6779.687512,	 625.729789,	 2.687828 
3.219250,	 0.027599,	 0.023265,	 1690.651166,	 10.338216,	 961.056040,	 6419.248208,	 621.516962,	 2.720252 
3.300750,	 0.027835,	 0.022328,	 1699.318781,	 10.520767,	 948.127357,	 6077.833985,	 617.322304,	 2.752778 
3.382250,	 0.028071,	 0.021431,	 1707.811019,	 10.677314,	 935.369021,	 5755.160980,	 613.154783,	 2.785340 
3.463750,	 0.028307,	 0.020574,	 1716.115970,	 10.809345,	 922.803231,	 5450.779020,	 609.022282,	 2.817877 
3.545250,	 0.028542,	 0.019756,	 1724.225553,	 10.918950,	 910.446761,	 5164.060879,	 604.931092,	 2.850341 
3.626750,	 0.028777,	 0.018977,	 1732.133803,	 11.007927,	 898.313607,	 4894.306895,	 600.886737,	 2.882688 
3.708250,	 0.029013,	 0.018236,	 1739.836320,	 11.077422,	 886.415764,	 4640.782099,	 596.894208,	 2.914874 
3.789750,	 0.029247,	 0.017531,	 1747.330949,	 11.128768,	 874.761860,	 4402.692250,	 592.957476,	 2.946866 
3.871250,	 0.029481,	 0.016861,	 1754.617203,	 11.163473,	 863.357941,	 4179.217638,	 589.079722,	 2.978634 
3.952750,	 0.029715,	 0.016224,	 1761.695494,	 11.182751,	 852.208714,	 3969.552059,	 585.263735,	 3.010149 
4.034250,	 0.029948,	 0.015620,	 1768.566993,	 11.187472,	 841.317702,	 3772.909897,	 581.511948,	 3.041386 
4.115750,	 0.030181,	 0.015047,	 1775.233982,	 11.178732,	 830.686501,	 3588.511523,	 577.826168,	 3.072324 
4.197250,	 0.030412,	 0.014503,	 1781.698797,	 11.156942,	 820.316638,	 3415.627059,	 574.208199,	 3.102940 
4.278750,	 0.030643,	 0.013987,	 1787.965065,	 11.123294,	 810.207203,	 3253.524347,	 570.659011,	 3.133219 
4.360250,	 0.030873,	 0.013498,	 1794.036180,	 11.078415,	 800.357613,	 3101.528550,	 567.179688,	 3.163143 
4.441750,	 0.031102,	 0.013034,	 1799.915917,	 11.022955,	 790.766455,	 2958.995476,	 563.771021,	 3.192696 
4.523250,	 0.031331,	 0.012594,	 1805.608144,	 10.957427,	 781.431954,	 2825.319618,	 560.433661,	 3.221865 
4.604750,	 0.031559,	 0.012176,	 1811.116791,	 10.882313,	 772.351890,	 2699.931699,	 557.168090,	 3.250634 
4.686250,	 0.031786,	 0.011780,	 1816.446043,	 10.798015,	 763.523586,	 2582.292898,	 553.974607,	 3.278992 
4.767750,	 0.032012,	 0.011405,	 1821.599937,	 10.704761,	 754.944424,	 2471.903724,	 550.853509,	 3.306925 
4.849250,	 0.032236,	 0.011049,	 1826.582684,	 10.603024,	 746.611203,	 2368.290367,	 547.804859,	 3.334424 
4.930750,	 0.032460,	 0.010711,	 1831.398111,	 10.492812,	 738.521281,	 2271.021592,	 544.828900,	 3.361474 
5.012250,	 0.032682,	 0.010391,	 1836.050362,	 10.374633,	 730.671127,	 2179.682467,	 541.925519,	 3.388066 
5.093750,	 0.032903,	 0.010087,	 1840.543018,	 10.248345,	 723.058149,	 2093.901530,	 539.094923,	 3.414188 
5.175250,	 0.033123,	 0.009799,	 1844.880003,	 10.114400,	 715.678788,	 2013.318816,	 536.336930,	 3.439830 
5.256750,	 0.033342,	 0.009525,	 1849.064646,	 9.972549,	 708.530532,	 1937.614446,	 533.651721,	 3.464978 
5.338250,	 0.033559,	 0.009266,	 1853.100626,	 9.823224,	 701.609864,	 1866.476381,	 531.039067,	 3.489624 
5.419750,	 0.033774,	 0.009020,	 1856.991118,	 9.666352,	 694.914136,	 1799.625739,	 528.499039,	 3.513755 
5.501250,	 0.033989,	 0.008787,	 1860.739346,	 9.502118,	 688.440349,	 1736.797916,	 526.031543,	 3.537361 
5.582750,	 0.034202,	 0.008566,	 1864.348256,	 9.330480,	 682.185909,	 1677.751409,	 523.636609,	 3.560430 
5.664250,	 0.034415,	 0.008357,	 1867.820733,	 9.151495,	 676.148147,	 1622.259910,	 521.314206,	 3.582951 
5.745750,	 0.034625,	 0.008159,	 1871.159494,	 8.965162,	 670.324557,	 1570.114286,	 519.064341,	 3.604911 
5.827250,	 0.034834,	 0.007971,	 1874.367092,	 8.771396,	 664.712824,	 1521.121542,	 516.887058,	 3.626300 
5.908750,	 0.035040,	 0.007793,	 1877.446054,	 8.570291,	 659.310480,	 1475.099692,	 514.782315,	 3.647106 
5.990250,	 0.035245,	 0.007625,	 1880.398767,	 8.361989,	 654.115177,	 1431.880020,	 512.750086,	 3.667317 