TITLE = "Final State"
VARIABLES = "X", "Y", "rho", "u", "v", "T", "p", "c", "M"
ZONE I=251, J=101, DATAPACKING=POINT
0.000000,	 0.000000,	 0.044550,	 1532.899753,	 -0.000009,	 1188.333523,	 15230.578025,	 661.514134,	 2.317259 
0.001656,	 0.000000,	 0.044550,	 1532.899765,	 -0.000156,	 1188.333549,	 15230.576667,	 661.514141,	 2.317259 
0.003312,	 0.000000,	 0.044550,	 1532.899909,	 0.000048,	 1188.333296,	 15230.570203,	 661.514071,	 2.317260 
0.004968,	 0.000000,	 0.044550,	 1532.899991,	 0.000027,	 1188.333021,	 15230.559525,	 661.513994,	 2.317260 
0.006624,	 0.000000,	 0.044550,	 1532.900016,	 -0.000016,	 1188.332988,	 15230.557476,	 661.513985,	 2.317260 
0.008280,	 0.000000,	 0.044550,	 1532.900004,	 -0.000004,	 1188.333003,	 15230.558223,	 661.513989,	 2.317260 
0.009936,	 0.000000,	 0.044550,	 1532.900001,	 0.000002,	 1188.333005,	 15230.558133,	 661.513990,	 2.317260 
0.011593,	 0.000000,	 0.044550,	 1532.900001,	 0.000000,	 1188.333003,	 15230.557983,	 661.513989,	 2.317260 
0.013249,	 0.000000,	 0.044550,	 1532.899999,	 -0.000001,	 1188.333004,	 15230.558017,	 661.513990,	 2.317260 
0.014905,	 0.000000,	 0.044550,	 1532.899999,	 0.000000,	 1188.333004,	 15230.558070,	 661.513990,	 2.317260 
0.016561,	 0.000000,	 0.044550,	 1532.899998,	 -0.000000,	 1188.333004,	 15230.558131,	 661.513990,	 2.317260 
0.018217,	 0.000000,	 0.044550,	 1532.899998,	 -0.000000,	 1188.333005,	 15230.558252,	 661.513990,	 2.317260 
0.019873,	 0.000000,	 0.044550,	 1532.899998,	 -0.000000,	 1188.333005,	 15230.558468,	 661.513990,	 2.317260 
0.021529,	 0.000000,	 0.044550,	 1532.899996,	 -0.000001,	 1188.333006,	 15230.558850,	 661.513990,	 2.317260 
0.023185,	 0.000000,	 0.044550,	 1532.899994,	 -0.000001,	 1188.333009,	 15230.559481,	 661.513991,	 2.317260 
0.024841,	 0.000000,	 0.044550,	 1532.899990,	 -0.000002,	 1188.333015,	 15230.560500,	 661.513993,	 2.317260 
0.026497,	 0.000000,	 0.044550,	 1532.899981,	 -0.000002,	 1188.333027,	 15230.562081,	 661.513996,	 2.317260 
0.028153,	 0.000000,	 0.044550,	 1532.899968,	 -0.000002,	 1188.333047,	 15230.564420,	 661.514002,	 2.317260 
0.029809,	 0.000000,	 0.044550,	 1532.899946,	 -0.000002,	 1188.333078,	 15230.567788,	 661.514010,	 2.317260 
0.031466,	 0.000000,	 0.044550,	 1532.899912,	 -0.000003,	 1188.333124,	 15230.572491,	 661.514023,	 2.317260 
0.033122,	 0.000000,	 0.044550,	 1532.899864,	 -0.000004,	 1188.333189,	 15230.578869,	 661.514041,	 2.317260 
0.034778,	 0.000000,	 0.044550,	 1532.899791,	 -0.000005,	 1188.333281,	 15230.587316,	 661.514067,	 2.317260 
0.036434,	 0.000000,	 0.044550,	 1532.899702,	 -0.000005,	 1188.333404,	 15230.598139,	 661.514101,	 2.317259 
0.038090,	 0.000000,	 0.044550,	 1532.899554,	 -0.000007,	 1188.333573,	 15230.611824,	 661.514148,	 2.317259 
0.039746,	 0.000000,	 0.044550,	 1532.899431,	 -0.000006,	 1188.333771,	 15230.628525,	 661.514203,	 2.317259 
0.041402,	 0.000000,	 0.044550,	 1532.899093,	 -0.000011,	 1188.334053,	 15230.650365,	 661.514282,	 2.317258 
0.043058,	 0.000000,	 0.044550,	 1532.899615,	 -0.000024,	 1188.334259,	 15230.683215,	 661.514339,	 2.317258 
0.044714,	 0.000000,	 0.044551,	 1532.900496,	 -0.000035,	 1188.334165,	 15230.746092,	 661.514313,	 2.317260 
0.046370,	 0.000000,	 0.044551,	 1532.897954,	 -0.002107,	 1188.335509,	 15230.819301,	 661.514687,	 2.317255 
0.048026,	 0.000000,	 0.044548,	 1532.910765,	 -0.005384,	 1188.320512,	 15229.755391,	 661.510513,	 2.317289 
0.049682,	 0.000000,	 0.044541,	 1532.951434,	 -0.008251,	 1188.273112,	 15226.783665,	 661.497319,	 2.317396 
0.051338,	 0.000000,	 0.044528,	 1533.033097,	 -0.012553,	 1188.177927,	 15220.951386,	 661.470825,	 2.317613 
0.052995,	 0.000000,	 0.044504,	 1533.175451,	 -0.020576,	 1188.011993,	 15210.770350,	 661.424634,	 2.317990 
0.054651,	 0.000000,	 0.044464,	 1533.415688,	 -0.036619,	 1187.731939,	 15193.453554,	 661.346670,	 2.318626 
0.056307,	 0.000000,	 0.044394,	 1533.828274,	 -0.070558,	 1187.250910,	 15163.357554,	 661.212734,	 2.319720 
0.057963,	 0.000000,	 0.044267,	 1534.576076,	 -0.142149,	 1186.378863,	 15108.953000,	 660.969856,	 2.321704 
0.059619,	 0.000000,	 0.044021,	 1535.926034,	 -0.241035,	 1184.804469,	 15004.955359,	 660.531138,	 2.325289 
0.061275,	 0.000000,	 0.043617,	 1538.435192,	 -0.597818,	 1181.876913,	 14830.511599,	 659.714574,	 2.331971 
0.062931,	 0.000000,	 0.042913,	 1543.279240,	 0.498859,	 1176.207851,	 14521.188319,	 658.130459,	 2.344944 
0.064587,	 0.000000,	 0.041843,	 1550.474385,	 0.766361,	 1167.756569,	 14057.524730,	 655.761798,	 2.364387 
0.066243,	 0.000000,	 0.040462,	 1559.669725,	 0.591531,	 1156.902312,	 13467.255497,	 652.707042,	 2.389540 
0.067899,	 0.000000,	 0.038772,	 1571.174262,	 0.752682,	 1143.226558,	 12752.179360,	 648.837744,	 2.421521 
0.069555,	 0.000000,	 0.036899,	 1584.271454,	 0.470038,	 1127.533353,	 11969.561119,	 644.369020,	 2.458640 
0.071211,	 0.000000,	 0.034961,	 1598.220765,	 0.525168,	 1110.671372,	 11171.237185,	 639.532681,	 2.499045 
0.072868,	 0.000000,	 0.032981,	 1612.939647,	 0.487732,	 1092.713947,	 10368.140658,	 634.341605,	 2.542699 
0.074524,	 0.000000,	 0.031055,	 1627.772977,	 0.214801,	 1074.446634,	 9599.330299,	 629.016993,	 2.587804 
0.076180,	 0.000000,	 0.029282,	 1641.881920,	 0.192329,	 1056.913342,	 8903.835357,	 623.863595,	 2.631796 
0.077836,	 0.000000,	 0.027610,	 1655.650343,	 0.324938,	 1039.655540,	 8258.153272,	 618.749256,	 2.675802 
0.079492,	 0.000000,	 0.026027,	 1669.095508,	 0.169284,	 1022.603483,	 7657.192227,	 613.654025,	 2.719929 
0.081148,	 0.000000,	 0.024586,	 1681.814757,	 0.096120,	 1006.399896,	 7118.367954,	 608.772807,	 2.762631 
0.082804,	 0.000000,	 0.023259,	 1693.947073,	 0.162131,	 990.887597,	 6630.545301,	 604.062881,	 2.804256 
0.084460,	 0.000000,	 0.022021,	 1705.561262,	 0.181857,	 975.823374,	 6182.245846,	 599.453585,	 2.845193 
0.086116,	 0.000000,	 0.020877,	 1716.669394,	 0.090796,	 961.339210,	 5773.965112,	 594.988103,	 2.885216 
0.087772,	 0.000000,	 0.019823,	 1727.266546,	 0.127613,	 947.490112,	 5403.499192,	 590.686842,	 2.924166 
0.089428,	 0.000000,	 0.018839,	 1737.424585,	 0.155540,	 934.068722,	 5062.450309,	 586.488321,	 2.962420 
0.091084,	 0.000000,	 0.017924,	 1747.159356,	 0.071539,	 921.131821,	 4749.953998,	 582.412713,	 2.999865 
0.092740,	 0.000000,	 0.017085,	 1756.434284,	 0.101932,	 908.839470,	 4467.109263,	 578.513560,	 3.036116 
0.094397,	 0.000000,	 0.016299,	 1765.348697,	 0.153978,	 896.928422,	 4205.681448,	 574.710123,	 3.071720 
0.096053,	 0.000000,	 0.015555,	 1773.947419,	 0.138290,	 885.269699,	 3961.650792,	 570.962721,	 3.106941 
0.097709,	 0.000000,	 0.014862,	 1782.219080,	 0.053322,	 874.038328,	 3737.175943,	 567.329272,	 3.141419 
0.099365,	 0.000000,	 0.014224,	 1790.126386,	 0.072374,	 863.367091,	 3533.097791,	 563.855341,	 3.174797 
0.101021,	 0.000000,	 0.013626,	 1797.733785,	 0.136262,	 853.039380,	 3343.981577,	 560.472739,	 3.207531 
0.102677,	 0.000000,	 0.013057,	 1805.088692,	 0.146342,	 842.906792,	 3166.227981,	 557.134086,	 3.239954 
0.104333,	 0.000000,	 0.012520,	 1812.213344,	 0.065238,	 833.047096,	 3000.490865,	 553.866032,	 3.271934 
0.105989,	 0.000000,	 0.012021,	 1819.066626,	 0.049857,	 823.614443,	 2848.340843,	 550.721372,	 3.303062 
0.107645,	 0.000000,	 0.011553,	 1825.674967,	 0.109423,	 814.498062,	 2707.048686,	 547.664993,	 3.333562 
0.109301,	 0.000000,	 0.011107,	 1832.067580,	 0.121962,	 805.576289,	 2574.131317,	 544.657253,	 3.363707 
0.110957,	 0.000000,	 0.010685,	 1838.265840,	 0.069642,	 796.879474,	 2449.556703,	 541.709278,	 3.393455 
0.112613,	 0.000000,	 0.010290,	 1844.252075,	 0.045270,	 788.510129,	 2334.169495,	 538.857078,	 3.422525 
0.114270,	 0.000000,	 0.009917,	 1850.037343,	 0.088512,	 780.418945,	 2226.676291,	 536.085246,	 3.451013 
0.115926,	 0.000000,	 0.009563,	 1855.643837,	 0.108249,	 772.509726,	 2125.369842,	 533.361829,	 3.479146 
0.117582,	 0.000000,	 0.009226,	 1861.090456,	 0.079396,	 764.776705,	 2029.850537,	 530.685570,	 3.506955 
0.119238,	 0.000000,	 0.008907,	 1866.372269,	 0.051010,	 757.282587,	 1940.520050,	 528.079050,	 3.534267 
0.120894,	 0.000000,	 0.008606,	 1871.490990,	 0.063301,	 750.018981,	 1856.889816,	 525.540368,	 3.561079 
0.122550,	 0.000000,	 0.008319,	 1876.454372,	 0.072087,	 742.929072,	 1778.001076,	 523.050510,	 3.587520 
0.124206,	 0.000000,	 0.008046,	 1881.275814,	 0.054936,	 736.009732,	 1703.637465,	 520.609072,	 3.613606 
0.125862,	 0.000000,	 0.007789,	 1885.936354,	 0.051836,	 729.349197,	 1634.307293,	 518.248088,	 3.639061 
0.127518,	 0.000000,	 0.007546,	 1890.465082,	 0.080368,	 722.910892,	 1569.327311,	 515.955609,	 3.664007 
0.129174,	 0.000000,	 0.007312,	 1894.859416,	 0.098464,	 716.579029,	 1507.446002,	 513.691052,	 3.688714 
0.130830,	 0.000000,	 0.007085,	 1899.187951,	 0.127908,	 710.242467,	 1447.716644,	 511.414776,	 3.713596 
0.132486,	 0.000000,	 0.006875,	 1903.299807,	 0.119552,	 704.251317,	 1392.968874,	 509.253224,	 3.737433 
0.134142,	 0.000000,	 0.006675,	 1907.305794,	 0.095487,	 698.455771,	 1341.265088,	 507.153479,	 3.760806 
0.135799,	 0.000000,	 0.006485,	 1911.170474,	 0.058859,	 692.843221,	 1292.699253,	 505.111713,	 3.783659 
0.137455,	 0.000000,	 0.006304,	 1914.937192,	 0.123505,	 687.368887,	 1246.630787,	 503.112247,	 3.806183 
0.139111,	 0.000000,	 0.006143,	 1918.449330,	 0.188722,	 682.417926,	 1205.966957,	 501.297071,	 3.826971 
0.140767,	 0.000000,	 0.006003,	 1921.516444,	 0.602679,	 678.097341,	 1171.166245,	 499.707623,	 3.845282 
0.142423,	 0.000000,	 0.005810,	 1925.626341,	 1.540351,	 671.905696,	 1123.127161,	 497.420998,	 3.871222 
0.144079,	 0.000000,	 0.005603,	 1929.709793,	 1.984123,	 665.767132,	 1073.260799,	 495.143553,	 3.897275 
0.145735,	 0.000000,	 0.005355,	 1931.053756,	 5.095760,	 663.876420,	 1022.675340,	 494.439974,	 3.905551 
0.147391,	 0.000000,	 0.005281,	 1931.414518,	 -5.794845,	 660.883224,	 1004.140330,	 493.324083,	 3.915120 
0.149047,	 0.000000,	 0.005520,	 1923.830693,	 -8.697536,	 671.659192,	 1066.703937,	 497.329745,	 3.868360 
0.150703,	 0.000000,	 0.005993,	 1915.786038,	 -13.641553,	 685.926698,	 1182.637265,	 502.584172,	 3.811968 
0.152359,	 0.000000,	 0.006057,	 1924.988280,	 29.715809,	 682.791246,	 1189.830026,	 501.434171,	 3.839422 
0.154015,	 0.000000,	 0.004947,	 1955.370878,	 48.570656,	 648.351953,	 922.683681,	 488.624642,	 4.003020 
0.155672,	 0.000000,	 0.002653,	 2003.698983,	 79.387734,	 574.897187,	 438.777559,	 460.113574,	 4.358209 
0.157328,	 0.000000,	 0.001837,	 1993.143777,	 -118.930295,	 576.743426,	 304.774400,	 460.851791,	 4.332605 
0.158984,	 0.000000,	 0.005985,	 1875.416362,	 -155.337087,	 739.903848,	 1274.038893,	 521.984487,	 3.605162 
0.160640,	 0.000000,	 0.009217,	 1817.035650,	 -29.088090,	 831.868516,	 2205.919859,	 553.474093,	 3.283385 
0.162296,	 0.000000,	 0.009160,	 1834.349175,	 33.909725,	 807.233098,	 2127.270018,	 545.217056,	 3.365013 
0.163952,	 0.000000,	 0.008002,	 1862.098644,	 24.059983,	 773.021336,	 1779.627580,	 533.538415,	 3.490384 
0.165608,	 0.000000,	 0.006987,	 1878.168452,	 26.571983,	 750.193618,	 1508.047049,	 525.601549,	 3.573727 
0.167264,	 0.000000,	 0.006175,	 1890.406033,	 10.353493,	 731.019828,	 1298.681446,	 518.841292,	 3.643570 
0.168920,	 0.000000,	 0.005928,	 1891.985708,	 -6.109944,	 729.382742,	 1244.020027,	 518.260005,	 3.650669 
0.170576,	 0.000000,	 0.006174,	 1884.246261,	 -9.648881,	 734.181493,	 1304.124755,	 519.962077,	 3.623862 
0.172232,	 0.000000,	 0.006546,	 1876.161252,	 -4.975960,	 744.087236,	 1401.223291,	 523.458048,	 3.584180 
0.173888,	 0.000000,	 0.006522,	 1876.543035,	 5.037074,	 747.620522,	 1402.840617,	 524.699392,	 3.576428 
0.175544,	 0.000000,	 0.006310,	 1880.885521,	 2.592670,	 742.665926,	 1348.136717,	 522.957870,	 3.596633 
0.177201,	 0.000000,	 0.006266,	 1881.820736,	 -2.779949,	 740.891989,	 1335.679724,	 522.332926,	 3.602727 
0.178857,	 0.000000,	 0.006408,	 1878.913254,	 -2.732844,	 743.045422,	 1369.759006,	 523.091466,	 3.591944 
0.180513,	 0.000000,	 0.006446,	 1878.162624,	 4.117012,	 745.248391,	 1382.051217,	 523.866319,	 3.585203 
0.182169,	 0.000000,	 0.006261,	 1882.188231,	 8.268912,	 741.451955,	 1335.508629,	 522.530278,	 3.602100 
0.183825,	 0.000000,	 0.006043,	 1887.573464,	 3.778540,	 734.612570,	 1277.123561,	 520.114703,	 3.629156 
0.185481,	 0.000000,	 0.005920,	 1889.810979,	 -2.041811,	 731.406883,	 1245.656867,	 518.978630,	 3.641406 
0.187137,	 0.000000,	 0.006023,	 1886.547916,	 -9.009074,	 735.014857,	 1273.624727,	 520.257096,	 3.626225 
0.188793,	 0.000000,	 0.006300,	 1880.653479,	 -6.208135,	 739.801435,	 1340.776732,	 521.948361,	 3.603161 
0.190449,	 0.000000,	 0.006434,	 1877.862227,	 -0.478315,	 742.248036,	 1373.972258,	 522.810718,	 3.591859 
0.192105,	 0.000000,	 0.006386,	 1878.813764,	 1.447238,	 744.356148,	 1367.579711,	 523.552628,	 3.588587 
0.193761,	 0.000000,	 0.006295,	 1880.699389,	 0.810186,	 743.721391,	 1346.900138,	 523.329348,	 3.593721 
0.195417,	 0.000000,	 0.006248,	 1881.751367,	 -1.393286,	 742.194614,	 1334.064169,	 522.791903,	 3.599428 
0.197074,	 0.000000,	 0.006267,	 1881.415438,	 -1.316908,	 741.848323,	 1337.638905,	 522.669927,	 3.599625 
0.198730,	 0.000000,	 0.006312,	 1880.533759,	 -0.408423,	 743.093406,	 1349.445554,	 523.108356,	 3.594922 
0.200386,	 0.000000,	 0.006266,	 1881.485452,	 2.522252,	 742.520406,	 1338.436245,	 522.906632,	 3.598132 
0.202042,	 0.000000,	 0.006168,	 1883.776021,	 1.957102,	 739.276866,	 1311.909238,	 521.763280,	 3.610406 
0.203698,	 0.000000,	 0.006078,	 1886.105450,	 1.311374,	 735.993921,	 1286.997285,	 520.603480,	 3.622922 
0.205354,	 0.000000,	 0.005987,	 1888.166447,	 0.985535,	 733.080383,	 1262.741976,	 519.572017,	 3.634081 
0.207010,	 0.000000,	 0.005908,	 1889.794108,	 0.185798,	 730.768319,	 1242.089381,	 518.752030,	 3.642962 
0.208666,	 0.000000,	 0.005855,	 1890.409528,	 -1.183193,	 729.874021,	 1229.344963,	 518.434514,	 3.646381 
0.210322,	 0.000000,	 0.005893,	 1889.035437,	 -4.351789,	 731.297057,	 1239.735261,	 518.939664,	 3.640193 
0.211978,	 0.000000,	 0.006033,	 1885.870160,	 -4.299682,	 732.098072,	 1270.664141,	 519.223793,	 3.632104 
0.213634,	 0.000000,	 0.006183,	 1882.556890,	 -3.995019,	 734.101796,	 1305.825283,	 519.933855,	 3.620770 
0.215290,	 0.000000,	 0.006271,	 1880.660780,	 -1.025041,	 738.861992,	 1332.961305,	 521.616856,	 3.605445 
0.216946,	 0.000000,	 0.006242,	 1881.257738,	 0.980679,	 740.968653,	 1330.621951,	 522.359950,	 3.601459 
0.218603,	 0.000000,	 0.006156,	 1883.154133,	 0.298884,	 739.642225,	 1310.010829,	 521.892195,	 3.608320 
0.220259,	 0.000000,	 0.006121,	 1883.966566,	 -2.108444,	 738.468653,	 1300.407923,	 521.477994,	 3.612746 
0.221915,	 0.000000,	 0.006160,	 1882.960357,	 -3.501400,	 739.284493,	 1310.116190,	 521.765972,	 3.608828 
0.223571,	 0.000000,	 0.006276,	 1880.327880,	 -3.963435,	 740.356391,	 1336.826806,	 522.144092,	 3.601175 
0.225227,	 0.000000,	 0.006409,	 1877.514203,	 -3.357585,	 742.209785,	 1368.555882,	 522.797246,	 3.591291 
0.226883,	 0.000000,	 0.006499,	 1875.687509,	 -0.673472,	 743.169780,	 1389.414619,	 523.135237,	 3.585474 
0.228539,	 0.000000,	 0.006532,	 1875.033177,	 0.262099,	 743.326505,	 1396.927492,	 523.190396,	 3.583845 
0.230195,	 0.000000,	 0.006543,	 1878.159760,	 2.687019,	 741.716329,	 1396.246209,	 522.623427,	 3.593719 
0.231851,	 0.000000,	 0.006386,	 1885.166100,	 10.152552,	 734.395019,	 1349.277982,	 520.037683,	 3.625109 
0.233507,	 0.000000,	 0.006061,	 1889.732749,	 10.254670,	 729.019437,	 1271.296248,	 518.130917,	 3.647265 
0.235163,	 0.000000,	 0.005811,	 1892.266183,	 4.385693,	 725.933632,	 1213.689501,	 517.033178,	 3.659864 
0.236819,	 0.000000,	 0.005718,	 1893.559192,	 -2.391248,	 724.088637,	 1191.044315,	 516.375727,	 3.667021 
0.238476,	 0.000000,	 0.005789,	 1890.809408,	 -9.019698,	 727.989783,	 1212.441940,	 517.764888,	 3.651910 
0.240132,	 0.000000,	 0.006027,	 1885.131985,	 -9.656458,	 732.672487,	 1270.384498,	 519.427448,	 3.629297 
0.241788,	 0.000000,	 0.006270,	 1879.886780,	 -5.437780,	 734.992095,	 1325.716588,	 520.249040,	 3.613451 
0.243444,	 0.000000,	 0.006382,	 1877.521636,	 -1.109646,	 739.013536,	 1356.772180,	 521.670346,	 3.599058 
0.245100,	 0.000000,	 0.006340,	 1878.352330,	 2.255574,	 742.739646,	 1354.695305,	 522.983825,	 3.591610 
0.246756,	 0.000000,	 0.006209,	 1880.987012,	 3.358334,	 741.491702,	 1324.476471,	 522.544284,	 3.599676 
0.248412,	 0.000000,	 0.006130,	 1882.913837,	 0.135099,	 738.742266,	 1302.913217,	 521.574592,	 3.610057 
0.250068,	 0.000000,	 0.006122,	 1883.066751,	 -1.427365,	 738.520676,	 1300.715315,	 521.496362,	 3.610892 
0.251724,	 0.000000,	 0.006178,	 1881.544034,	 -2.231896,	 738.236892,	 1312.118545,	 521.396157,	 3.608667 
0.253380,	 0.000000,	 0.006288,	 1879.249141,	 -1.990683,	 738.891706,	 1336.703802,	 521.627344,	 3.602668 
0.255036,	 0.000000,	 0.006333,	 1878.328341,	 0.893839,	 741.295643,	 1350.672984,	 522.475196,	 3.595058 
0.256692,	 0.000000,	 0.006273,	 1880.567404,	 4.246612,	 740.000116,	 1335.551100,	 522.018444,	 3.602501 
0.258348,	 0.000000,	 0.006141,	 1883.642453,	 5.244605,	 736.932731,	 1301.933868,	 520.935407,	 3.615899 
0.260005,	 0.000000,	 0.006008,	 1885.780590,	 3.321293,	 734.530159,	 1269.608134,	 520.085528,	 3.625910 
0.261661,	 0.000000,	 0.005932,	 1887.278414,	 0.243770,	 732.398652,	 1249.850771,	 519.330371,	 3.634061 
0.263317,	 0.000000,	 0.005924,	 1886.917517,	 -2.388686,	 732.911045,	 1248.993094,	 519.512004,	 3.632099 
0.264973,	 0.000000,	 0.005998,	 1884.984064,	 -3.300982,	 735.526416,	 1269.154446,	 520.438110,	 3.621923 
0.266629,	 0.000000,	 0.006070,	 1883.402846,	 -1.472878,	 737.363754,	 1287.700331,	 521.087729,	 3.614369 
0.268285,	 0.000000,	 0.006085,	 1883.039607,	 -0.450046,	 737.506097,	 1290.993778,	 521.138023,	 3.613322 
0.269941,	 0.000000,	 0.006096,	 1882.726351,	 -1.426454,	 737.028717,	 1292.684970,	 520.969332,	 3.613892 
0.271597,	 0.000000,	 0.006157,	 1881.406762,	 -2.515450,	 737.731210,	 1306.833179,	 521.217552,	 3.609641 
0.273253,	 0.000000,	 0.006235,	 1879.787670,	 -1.426057,	 738.907103,	 1325.413453,	 521.632779,	 3.603662 
0.274909,	 0.000000,	 0.006265,	 1879.177947,	 0.389138,	 740.966629,	 1335.475363,	 522.359236,	 3.597482 
0.276565,	 0.000000,	 0.006207,	 1880.325708,	 3.522584,	 741.521104,	 1324.050898,	 522.554644,	 3.598339 
0.278221,	 0.000000,	 0.006112,	 1882.573536,	 3.537147,	 738.698034,	 1298.955761,	 521.558977,	 3.609519 
0.279878,	 0.000000,	 0.006037,	 1884.852797,	 1.934060,	 735.594654,	 1277.664275,	 520.462251,	 3.621500 
0.281534,	 0.000000,	 0.005950,	 1886.281839,	 -0.033234,	 733.550908,	 1255.647463,	 519.738733,	 3.629289 
0.283190,	 0.000000,	 0.005971,	 1884.944448,	 -6.128205,	 735.442693,	 1263.264351,	 520.408489,	 3.622067 
0.284846,	 0.000000,	 0.006128,	 1881.515502,	 -6.431375,	 738.529603,	 1302.086857,	 521.499513,	 3.607916 
0.286502,	 0.000000,	 0.006285,	 1878.201853,	 -3.946861,	 739.989580,	 1337.982608,	 522.014727,	 3.597994 
0.288158,	 0.000000,	 0.006362,	 1876.588881,	 -0.902787,	 741.799459,	 1357.739608,	 522.652714,	 3.590509 
0.289814,	 0.000000,	 0.006356,	 1878.526076,	 2.397852,	 741.446924,	 1355.738317,	 522.528506,	 3.595072 
0.291470,	 0.000000,	 0.006289,	 1881.630901,	 3.745298,	 738.503346,	 1336.194034,	 521.490243,	 3.608188 
0.293126,	 0.000000,	 0.006171,	 1882.564285,	 3.820877,	 737.944988,	 1310.124727,	 521.293065,	 3.611343 
0.294782,	 0.000000,	 0.006063,	 1883.361881,	 2.117639,	 737.549813,	 1286.557852,	 521.153468,	 3.613836 
0.296438,	 0.000000,	 0.006017,	 1884.125230,	 -0.460390,	 736.460485,	 1274.786707,	 520.768466,	 3.617971 
0.298094,	 0.000000,	 0.006032,	 1883.394221,	 -2.930319,	 737.502532,	 1279.828243,	 521.136763,	 3.614016 
0.299750,	 0.000000,	 0.006106,	 1881.625355,	 -3.426928,	 739.009500,	 1298.269392,	 521.668921,	 3.606940 
0.301407,	 0.000000,	 0.006197,	 1879.723793,	 -1.963780,	 738.902165,	 1317.265369,	 521.631036,	 3.603552 
0.303063,	 0.000000,	 0.006252,	 1878.570389,	 -0.751924,	 740.345246,	 1331.640797,	 522.140162,	 3.597828 
0.304719,	 0.000000,	 0.006255,	 1880.681032,	 2.431448,	 739.358801,	 1330.590008,	 521.792193,	 3.604275 
0.306375,	 0.000000,	 0.006196,	 1884.625321,	 4.186344,	 734.172491,	 1308.779234,	 519.958889,	 3.624575 
0.308031,	 0.000000,	 0.006074,	 1885.369395,	 3.660567,	 733.847520,	 1282.390429,	 519.843801,	 3.626807 
0.309687,	 0.000000,	 0.005967,	 1885.214641,	 1.694846,	 734.803038,	 1261.513798,	 520.182126,	 3.624145 
0.311343,	 0.000000,	 0.005931,	 1885.728044,	 -1.146666,	 734.068540,	 1252.554829,	 519.922078,	 3.626944 
0.312999,	 0.000000,	 0.005955,	 1884.773862,	 -3.521121,	 735.429082,	 1259.956225,	 520.403673,	 3.621760 
0.314655,	 0.000000,	 0.006031,	 1882.897081,	 -3.523581,	 737.263412,	 1279.304303,	 521.052273,	 3.613650 
0.316311,	 0.000000,	 0.006114,	 1881.060090,	 -2.070602,	 738.294305,	 1298.622132,	 521.416431,	 3.607599 
0.317967,	 0.000000,	 0.006168,	 1879.825746,	 -1.401271,	 738.755163,	 1310.953155,	 521.579145,	 3.604106 
0.319623,	 0.000000,	 0.006213,	 1878.825949,	 -1.531973,	 739.920510,	 1322.526163,	 521.990365,	 3.599351 
0.321280,	 0.000000,	 0.006255,	 1877.907857,	 -0.927822,	 741.316023,	 1334.057179,	 522.482378,	 3.594204 
0.322936,	 0.000000,	 0.006278,	 1877.434550,	 -0.361525,	 742.844353,	 1341.663413,	 523.020687,	 3.589599 
0.324592,	 0.000000,	 0.006292,	 1879.911282,	 1.179367,	 740.426469,	 1340.231851,	 522.168803,	 3.600199 
0.326248,	 0.000000,	 0.006289,	 1884.138629,	 2.149563,	 734.431102,	 1328.718043,	 520.050459,	 3.622994 
0.327904,	 0.000000,	 0.006230,	 1886.371117,	 2.883327,	 731.250595,	 1310.565853,	 518.923179,	 3.635169 
0.329560,	 0.000000,	 0.006126,	 1886.289285,	 2.370613,	 731.449245,	 1289.157477,	 518.993659,	 3.634516 
0.331216,	 0.000000,	 0.006029,	 1885.004611,	 0.801100,	 734.030088,	 1273.269218,	 519.908460,	 3.625647 
0.332872,	 0.000000,	 0.005979,	 1884.465009,	 -0.180936,	 735.516716,	 1265.077959,	 520.434678,	 3.620944 
0.334528,	 0.000000,	 0.005967,	 1884.428771,	 -0.920831,	 735.570163,	 1262.810177,	 520.453587,	 3.620744 
0.336184,	 0.000000,	 0.005975,	 1884.041839,	 -1.372266,	 736.124856,	 1265.368101,	 520.649787,	 3.618637 
0.337840,	 0.000000,	 0.005994,	 1883.409637,	 -1.484404,	 736.416306,	 1269.832482,	 520.752846,	 3.616707 
0.339496,	 0.000000,	 0.006043,	 1882.184636,	 -2.419278,	 736.564839,	 1280.615698,	 520.805360,	 3.613992 
0.341152,	 0.000000,	 0.006124,	 1880.443008,	 -2.916758,	 737.760556,	 1299.872649,	 521.227918,	 3.607722 
0.342809,	 0.000000,	 0.006206,	 1878.743808,	 -1.510393,	 737.855737,	 1317.281296,	 521.261540,	 3.604226 
0.344465,	 0.000000,	 0.006301,	 1880.986701,	 -0.650219,	 735.653837,	 1333.658796,	 520.483188,	 3.613924 
0.346121,	 0.000000,	 0.006311,	 1887.712971,	 5.282978,	 729.401609,	 1324.427074,	 518.266708,	 3.642372 
0.347777,	 0.000000,	 0.006209,	 1892.528624,	 5.397316,	 722.697649,	 1290.904071,	 515.879505,	 3.668563 
0.349433,	 0.000000,	 0.006068,	 1893.618665,	 4.230028,	 720.662289,	 1258.011808,	 515.152548,	 3.675850 
0.351089,	 0.000000,	 0.005844,	 1891.908427,	 1.150668,	 723.760796,	 1216.881922,	 516.258816,	 3.664652 
0.352745,	 0.000000,	 0.005814,	 1887.733042,	 -9.394267,	 730.619119,	 1221.976699,	 518.699071,	 3.639406 
0.354401,	 0.000000,	 0.006067,	 1882.221217,	 -11.273832,	 736.599088,	 1285.589240,	 520.817468,	 3.614040 
0.356057,	 0.000000,	 0.006332,	 1876.653322,	 -6.252072,	 738.851726,	 1345.855080,	 521.613232,	 3.597807 
0.357713,	 0.000000,	 0.006468,	 1873.805072,	 -2.058073,	 741.088806,	 1379.042267,	 522.402300,	 3.586903 
0.359369,	 0.000000,	 0.006510,	 1879.121163,	 2.214810,	 738.406854,	 1383.036251,	 521.456173,	 3.603606 
0.361025,	 0.000000,	 0.006489,	 1884.879342,	 2.410332,	 733.004550,	 1368.366099,	 519.545142,	 3.627944 
0.362682,	 0.000000,	 0.006421,	 1885.337979,	 2.471653,	 732.367659,	 1352.851637,	 519.319383,	 3.630405 
0.364338,	 0.000000,	 0.006386,	 1887.522512,	 2.599861,	 729.235076,	 1339.775006,	 518.207541,	 3.642410 
0.365994,	 0.000000,	 0.006300,	 1891.824626,	 7.098827,	 723.224416,	 1310.910953,	 516.067481,	 3.665873 
0.367650,	 0.000000,	 0.006102,	 1896.832851,	 8.676379,	 716.439256,	 1257.628884,	 513.640950,	 3.692955 
0.369306,	 0.000000,	 0.005933,	 1899.606928,	 4.605928,	 712.090125,	 1215.369345,	 512.079553,	 3.709604 
0.370962,	 0.000000,	 0.005714,	 1898.575525,	 2.860430,	 713.845335,	 1173.405044,	 512.710270,	 3.703023 
0.372618,	 0.000000,	 0.005594,	 1895.213019,	 -8.061821,	 719.461884,	 1157.968357,	 514.723325,	 3.682037 
0.374274,	 0.000000,	 0.005817,	 1889.368175,	 -15.135254,	 726.830414,	 1216.301303,	 517.352437,	 3.652112 
0.375930,	 0.000000,	 0.006195,	 1880.984031,	 -12.518382,	 731.987423,	 1304.684891,	 519.184554,	 3.623039 
0.377586,	 0.000000,	 0.006483,	 1874.863185,	 -6.430108,	 734.783436,	 1370.445312,	 520.175187,	 3.604313 
0.379242,	 0.000000,	 0.006591,	 1879.564306,	 1.159399,	 736.381568,	 1396.414190,	 520.740563,	 3.609407 
0.380898,	 0.000000,	 0.006571,	 1888.082407,	 5.836603,	 731.027963,	 1381.936564,	 518.844179,	 3.639034 
0.382554,	 0.000000,	 0.006443,	 1892.180553,	 9.269066,	 723.579661,	 1341.319782,	 516.194210,	 3.665681 
0.384211,	 0.000000,	 0.006247,	 1895.606002,	 7.883668,	 718.343586,	 1291.084297,	 514.323138,	 3.685664 
0.385867,	 0.000000,	 0.006057,	 1894.976362,	 3.788577,	 717.675174,	 1250.659557,	 514.083796,	 3.686131 
0.387523,	 0.000000,	 0.005935,	 1890.772244,	 -1.531812,	 723.839233,	 1235.927699,	 516.286790,	 3.662253 
0.389179,	 0.000000,	 0.006021,	 1885.929156,	 -4.370430,	 728.389521,	 1261.717541,	 517.907021,	 3.641453 
0.390835,	 0.000000,	 0.006220,	 1881.927129,	 -3.093529,	 730.414426,	 1307.049052,	 518.626405,	 3.628681 
0.392491,	 0.000000,	 0.006340,	 1887.169903,	 2.161268,	 727.204067,	 1326.462879,	 517.485402,	 3.646810 
0.394147,	 0.000000,	 0.006328,	 1895.436713,	 5.940447,	 719.146209,	 1309.254538,	 514.610391,	 3.683264 
0.395803,	 0.000000,	 0.006215,	 1897.616345,	 6.336600,	 715.089748,	 1278.496657,	 513.156967,	 3.697946 
0.397459,	 0.000000,	 0.006052,	 1899.328366,	 4.866403,	 711.990801,	 1239.727369,	 512.043839,	 3.709320 
0.399115,	 0.000000,	 0.005846,	 1897.190193,	 0.658611,	 715.499575,	 1203.432289,	 513.303994,	 3.696037 
0.400771,	 0.000000,	 0.005807,	 1892.371006,	 -6.914216,	 723.114504,	 1208.128819,	 516.028264,	 3.667209 
0.402427,	 0.000000,	 0.005980,	 1888.082500,	 -8.716991,	 727.968052,	 1252.390105,	 517.757160,	 3.646695 
0.404084,	 0.000000,	 0.006175,	 1883.587015,	 -5.956467,	 729.890433,	 1296.633284,	 518.440343,	 3.633198 
0.405740,	 0.000000,	 0.006306,	 1880.737272,	 -2.915978,	 731.857482,	 1327.762271,	 519.138469,	 3.622809 
0.407396,	 0.000000,	 0.006390,	 1885.617057,	 1.152985,	 728.554060,	 1339.383760,	 517.965513,	 3.640430 
0.409052,	 0.000000,	 0.006405,	 1892.135979,	 2.882242,	 722.084050,	 1330.617278,	 515.660457,	 3.669349 
0.410708,	 0.000000,	 0.006333,	 1893.295628,	 3.745035,	 720.641390,	 1312.891102,	 515.145078,	 3.675274 
0.412364,	 0.000000,	 0.006248,	 1894.177495,	 2.902581,	 719.250519,	 1292.840365,	 514.647711,	 3.680537 
0.414020,	 0.000000,	 0.006179,	 1895.304230,	 2.490917,	 717.565442,	 1275.575709,	 514.044493,	 3.687046 
0.000000,	 0.000328,	 0.044550,	 1532.900028,	 -0.000052,	 1188.333026,	 15230.597838,	 661.513996,	 2.317260 
0.001656,	 0.000329,	 0.044550,	 1532.899999,	 -0.000179,	 1188.333046,	 15230.572862,	 661.514002,	 2.317260 
0.003312,	 0.000330,	 0.044550,	 1532.899993,	 0.000053,	 1188.333053,	 15230.567020,	 661.514003,	 2.317260 
0.004968,	 0.000332,	 0.044550,	 1532.900028,	 0.000046,	 1188.332991,	 15230.560174,	 661.513986,	 2.317260 
0.006624,	 0.000334,	 0.044550,	 1532.900023,	 -0.000016,	 1188.332981,	 15230.557937,	 661.513983,	 2.317260 
0.008280,	 0.000337,	 0.044550,	 1532.900007,	 -0.000006,	 1188.332997,	 15230.558060,	 661.513988,	 2.317260 
0.009936,	 0.000339,	 0.044550,	 1532.900002,	 0.000001,	 1188.333001,	 15230.558086,	 661.513989,	 2.317260 
0.011593,	 0.000341,	 0.044550,	 1532.900001,	 0.000001,	 1188.333001,	 15230.558025,	 661.513989,	 2.317260 
0.013249,	 0.000344,	 0.044550,	 1532.900000,	 -0.000000,	 1188.333001,	 15230.558028,	 661.513989,	 2.317260 
0.014905,	 0.000346,	 0.044550,	 1532.900000,	 -0.000000,	 1188.333001,	 15230.558070,	 661.513989,	 2.317260 
0.016561,	 0.000349,	 0.044550,	 1532.900000,	 -0.000000,	 1188.333001,	 15230.558134,	 661.513989,	 2.317260 
0.018217,	 0.000351,	 0.044550,	 1532.899999,	 -0.000000,	 1188.333001,	 15230.558260,	 661.513989,	 2.317260 
0.019873,	 0.000354,	 0.044550,	 1532.899999,	 -0.000001,	 1188.333002,	 15230.558490,	 661.513989,	 2.317260 
0.021529,	 0.000356,	 0.044550,	 1532.899998,	 -0.000002,	 1188.333005,	 15230.558893,	 661.513990,	 2.317260 
0.023185,	 0.000359,	 0.044550,	 1532.899995,	 -0.000003,	 1188.333009,	 15230.559555,	 661.513991,	 2.317260 
0.024841,	 0.000362,	 0.044550,	 1532.899990,	 -0.000005,	 1188.333016,	 15230.560598,	 661.513993,	 2.317260 
0.026497,	 0.000365,	 0.044550,	 1532.899982,	 -0.000008,	 1188.333029,	 15230.562191,	 661.513997,	 2.317260 
0.028153,	 0.000367,	 0.044550,	 1532.899968,	 -0.000012,	 1188.333048,	 15230.564551,	 661.514002,	 2.317260 
0.029809,	 0.000370,	 0.044550,	 1532.899946,	 -0.000018,	 1188.333078,	 15230.567940,	 661.514010,	 2.317260 
0.031466,	 0.000373,	 0.044550,	 1532.899912,	 -0.000026,	 1188.333123,	 15230.572679,	 661.514023,	 2.317260 
0.033122,	 0.000376,	 0.044550,	 1532.899864,	 -0.000037,	 1188.333189,	 15230.579110,	 661.514041,	 2.317260 
0.034778,	 0.000379,	 0.044550,	 1532.899792,	 -0.000051,	 1188.333282,	 15230.587612,	 661.514067,	 2.317260 