TITLE = "Final State"
VARIABLES = "X", "Y", "rho", "u", "v", "T", "p", "c", "M"
ZONE I=101, J=101, DATAPACKING=POINT
0.000000,	 0.000000,	 0.044550,	 1532.900000,	 -0.000000,	 1188.333000,	 15230.557603,	 661.513989,	 2.317260 
0.030000,	 0.000000,	 0.044550,	 1532.900000,	 -0.000000,	 1188.333000,	 15230.557603,	 661.513989,	 2.317260 
0.060000,	 0.000000,	 0.044550,	 1532.900000,	 -0.000000,	 1188.333000,	 15230.557603,	 661.513989,	 2.317260 
0.090000,	 0.000000,	 0.044550,	 1532.900000,	 -0.000000,	 1188.333000,	 15230.557603,	 661.513989,	 2.317260 
0.120000,	 0.000000,	 0.044550,	 1532.900000,	 -0.000000,	 1188.333000,	 15230.557603,	 661.513989,	 2.317260 
0.150000,	 0.000000,	 0.044550,	 1532.900000,	 -0.000000,	 1188.333000,	 15230.557603,	 661.513989,	 2.317260 
0.180000,	 0.000000,	 0.044550,	 1532.900000,	 -0.000000,	 1188.333000,	 15230.557603,	 661.513989,	 2.317260 
0.210000,	 0.000000,	 0.044550,	 1532.900000,	 -0.000000,	 1188.333000,	 15230.557603,	 661.513989,	 2.317260 
0.240000,	 0.000000,	 0.044550,	 1532.900000,	 -0.000000,	 1188.333000,	 15230.557603,	 661.513989,	 2.317260 
0.270000,	 0.000000,	 0.044550,	 1532.900000,	 0.000000,	 1188.333000,	 15230.557603,	 661.513989,	 2.317260 
0.300000,	 0.000000,	 0.044550,	 1532.900000,	 0.000000,	 1188.333000,	 15230.557603,	 661.513989,	 2.317260 
0.330000,	 0.000000,	 0.044550,	 1532.900000,	 0.000000,	 1188.333000,	 15230.557603,	 661.513989,	 2.317260 
0.360000,	 0.000000,	 0.044550,	 1532.900000,	 0.000000,	 1188.333000,	 15230.557603,	 661.513989,	 2.317260 
0.390000,	 0.000000,	 0.044550,	 1532.900000,	 0.000000,	 1188.333000,	 15230.557603,	 661.513989,	 2.317260 
0.420000,	 0.000000,	 0.044550,	 1532.900000,	 0.000000,	 1188.333000,	 15230.557603,	 661.513989,	 2.317260 
0.450000,	 0.000000,	 0.044550,	 1532.900000,	 0.000000,	 1188.333000,	 15230.557603,	 661.513989,	 2.317260 
0.480000,	 0.000000,	 0.044550,	 1532.900000,	 0.000000,	 1188.333000,	 15230.557603,	 661.513989,	 2.317260 
0.510000,	 0.000000,	 0.044550,	 1532.900000,	 0.000000,	 1188.333000,	 15230.557603,	 661.513989,	 2.317260 
0.540000,	 0.000000,	 0.044550,	 1532.900000,	 0.000000,	 1188.333000,	 15230.557603,	 661.513989,	 2.317260 
0.570000,	 0.000000,	 0.044550,	 1532.900000,	 0.000000,	 1188.333000,	 15230.557603,	 661.513989,	 2.317260 
0.600000,	 0.000000,	 0.044550,	 1532.900000,	 0.000000,	 1188.333000,	 15230.557603,	 661.513989,	 2.317260 
0.630000,	 0.000000,	 0.044550,	 1532.900000,	 0.000000,	 1188.333000,	 15230.557603,	 661.513989,	 2.317260 
0.660000,	 0.000000,	 0.044550,	 1532.900000,	 0.000000,	 1188.333000,	 15230.557603,	 661.513989,	 2.317260 
0.690000,	 0.000000,	 0.044550,	 1532.900000,	 0.000000,	 1188.333000,	 15230.557603,	 661.513989,	 2.317260 
0.720000,	 0.000000,	 0.044550,	 1532.900000,	 0.000000,	 1188.333000,	 15230.557603,	 661.513989,	 2.317260 
0.750000,	 0.000000,	 0.044550,	 1532.900000,	 0.000000,	 1188.333000,	 15230.557603,	 661.513989,	 2.317260 
0.780000,	 0.000000,	 0.044550,	 1532.900000,	 0.000000,	 1188.333000,	 15230.557603,	 661.513989,	 2.317260 
0.810000,	 0.000000,	 0.044550,	 1532.900000,	 0.000000,	 1188.333000,	 15230.557603,	 661.513989,	 2.317260 
0.840000,	 0.000000,	 0.044550,	 1532.900000,	 0.000000,	 1188.333000,	 15230.557603,	 661.513989,	 2.317260 
0.870000,	 0.000000,	 0.044550,	 1532.900000,	 0.000000,	 1188.333000,	 15230.557603,	 661.513989,	 2.317260 
0.900000,	 0.000000,	 0.044550,	 1532.900000,	 0.000000,	 1188.333000,	 15230.557603,	 661.513989,	 2.317260 
0.930000,	 0.000000,	 0.044550,	 1532.900000,	 0.000000,	 1188.333000,	 15230.557603,	 661.513989,	 2.317260 
0.960000,	 0.000000,	 0.044550,	 1532.900000,	 0.000000,	 1188.333000,	 15230.557603,	 661.513989,	 2.317260 
0.990000,	 0.000000,	 0.044267,	 1524.023120,	 44.689272,	 1186.767193,	 15113.731147,	 661.078023,	 2.306351 
1.020000,	 0.005000,	 0.045724,	 1468.345405,	 211.435227,	 1241.086620,	 16325.733520,	 676.037832,	 2.194389 
1.050000,	 0.012500,	 0.058147,	 1451.781231,	 317.756362,	 1272.708058,	 21290.447004,	 684.595989,	 2.170840 
1.080000,	 0.020000,	 0.064142,	 1407.381589,	 350.570995,	 1302.374823,	 24033.201550,	 692.528976,	 2.094334 
1.110000,	 0.027500,	 0.061427,	 1348.703928,	 327.321190,	 1345.014507,	 23769.346888,	 703.774356,	 1.972017 
1.140000,	 0.035000,	 0.062956,	 1390.836561,	 341.263600,	 1313.902349,	 23797.537736,	 695.587066,	 2.058825 
1.170000,	 0.042500,	 0.062978,	 1388.772698,	 345.316780,	 1313.570787,	 23799.807193,	 695.499295,	 2.057601 
1.200000,	 0.050000,	 0.063446,	 1368.522853,	 334.843675,	 1315.479571,	 24011.510791,	 696.004436,	 2.024256 
1.230000,	 0.057500,	 0.063754,	 1386.006097,	 348.011880,	 1308.205183,	 23994.623003,	 694.077373,	 2.058891 
1.260000,	 0.065000,	 0.063455,	 1387.223993,	 341.306950,	 1313.408055,	 23976.881098,	 695.456213,	 2.054183 
1.290000,	 0.072500,	 0.063609,	 1384.892158,	 346.196166,	 1313.847071,	 24043.207307,	 695.572434,	 2.052277 
1.320000,	 0.080000,	 0.063455,	 1398.708202,	 348.248057,	 1308.699825,	 23891.014808,	 694.208578,	 2.076335 
1.350000,	 0.087500,	 0.063630,	 1386.366381,	 344.461710,	 1312.368235,	 24023.960972,	 695.180863,	 2.054888 
1.380000,	 0.095000,	 0.063711,	 1384.578281,	 346.228605,	 1313.134302,	 24068.851862,	 695.383732,	 2.052408 
1.410000,	 0.102500,	 0.063999,	 1385.356116,	 344.193733,	 1311.403517,	 24145.704207,	 694.925304,	 2.054140 
1.440000,	 0.110000,	 0.063663,	 1379.070874,	 345.369393,	 1311.376603,	 24018.242844,	 694.918173,	 2.045794 
1.470000,	 0.117500,	 0.063505,	 1386.195663,	 344.858140,	 1311.837013,	 23967.298777,	 695.040151,	 2.055203 
1.500000,	 0.125000,	 0.063670,	 1385.007922,	 346.187262,	 1312.290779,	 24037.987805,	 695.160348,	 2.053653 
1.530000,	 0.132500,	 0.063652,	 1384.745641,	 345.405125,	 1312.559149,	 24035.945932,	 695.231426,	 2.052804 
1.560000,	 0.140000,	 0.063829,	 1387.905005,	 346.354137,	 1313.205509,	 24114.766232,	 695.402586,	 2.057037 
1.590000,	 0.147500,	 0.063771,	 1387.279091,	 346.897327,	 1312.702867,	 24083.453135,	 695.269488,	 2.056747 
1.620000,	 0.155000,	 0.063670,	 1387.381840,	 346.377039,	 1311.333823,	 24020.437925,	 694.906838,	 2.057782 
1.650000,	 0.162500,	 0.063559,	 1387.453289,	 346.592706,	 1310.450917,	 23962.139416,	 694.672862,	 2.058650 
1.680000,	 0.170000,	 0.063723,	 1387.141320,	 346.100192,	 1312.269252,	 24057.562327,	 695.154647,	 2.056617 
1.710000,	 0.177500,	 0.063850,	 1386.389360,	 346.764194,	 1313.558042,	 24128.859918,	 695.495921,	 2.054790 
1.740000,	 0.185000,	 0.063836,	 1382.017122,	 344.962435,	 1313.700620,	 24126.273965,	 695.533666,	 2.047952 
1.770000,	 0.192500,	 0.063779,	 1381.769016,	 345.572940,	 1313.293676,	 24097.359857,	 695.425930,	 2.048136 
1.800000,	 0.200000,	 0.063632,	 1384.852809,	 345.955651,	 1312.491812,	 24027.020998,	 695.213593,	 2.053198 
1.830000,	 0.207500,	 0.063605,	 1384.851916,	 346.045429,	 1312.116925,	 24009.958889,	 695.114299,	 2.053521 
1.860000,	 0.215000,	 0.063611,	 1386.108162,	 346.488004,	 1312.440447,	 24018.262695,	 695.199989,	 2.055176 
1.890000,	 0.222500,	 0.063819,	 1381.656191,	 344.778651,	 1313.694289,	 24119.941102,	 695.531990,	 2.047389 
1.920000,	 0.230000,	 0.063838,	 1380.895052,	 345.558277,	 1313.709315,	 24127.126339,	 695.535968,	 2.046587 
1.950000,	 0.237500,	 0.063747,	 1381.787799,	 345.004227,	 1313.411879,	 24087.621812,	 695.457225,	 2.047871 
1.980000,	 0.245000,	 0.061164,	 1383.833451,	 330.847798,	 1319.036054,	 23210.541998,	 696.944647,	 2.041530 
2.010000,	 0.250000,	 0.044654,	 1474.653720,	 182.925158,	 1256.723968,	 16144.712925,	 680.283445,	 2.184319 
2.040000,	 0.250000,	 0.030410,	 1610.976248,	 -66.778783,	 1104.573511,	 9663.780272,	 637.774668,	 2.528102 
2.070000,	 0.250000,	 0.035532,	 1581.359467,	 14.811718,	 1122.967213,	 11479.291649,	 643.062955,	 2.459213 
2.100000,	 0.250000,	 0.034650,	 1564.692706,	 -3.969669,	 1146.574174,	 11429.623452,	 649.787019,	 2.408016 
2.130000,	 0.250000,	 0.034769,	 1568.630719,	 0.164463,	 1154.421066,	 11547.567475,	 652.006725,	 2.405851 
2.160000,	 0.250000,	 0.035245,	 1560.117151,	 -0.734657,	 1159.388857,	 11756.084621,	 653.408101,	 2.387661 
2.190000,	 0.250000,	 0.035475,	 1558.440388,	 0.314451,	 1161.191501,	 11850.976727,	 653.915871,	 2.383243 
2.220000,	 0.250000,	 0.035956,	 1554.908768,	 -0.635649,	 1165.341595,	 12054.618206,	 655.083375,	 2.373605 
2.250000,	 0.250000,	 0.036052,	 1554.174414,	 0.290299,	 1167.099929,	 12105.077250,	 655.577402,	 2.370696 
2.280000,	 0.250000,	 0.036288,	 1552.653269,	 -0.206165,	 1168.856443,	 12202.803536,	 656.070546,	 2.366595 
2.310000,	 0.250000,	 0.036364,	 1552.076535,	 0.130046,	 1170.518619,	 12245.532843,	 656.536864,	 2.364036 
2.340000,	 0.250000,	 0.036676,	 1549.945614,	 -0.412419,	 1173.000442,	 12376.947580,	 657.232516,	 2.358291 
2.370000,	 0.250000,	 0.036895,	 1548.375399,	 -0.005076,	 1174.519421,	 12466.940537,	 657.657920,	 2.354378 
2.400000,	 0.250000,	 0.037270,	 1545.476243,	 -0.362368,	 1177.912072,	 12630.066359,	 658.607072,	 2.346583 
2.430000,	 0.250000,	 0.037490,	 1543.926866,	 0.251432,	 1179.071876,	 12716.949606,	 658.931234,	 2.343077 
2.460000,	 0.250000,	 0.037729,	 1542.395505,	 -0.275054,	 1180.851637,	 12817.346315,	 659.428361,	 2.338989 
2.490000,	 0.250000,	 0.037817,	 1541.844153,	 0.044112,	 1182.415181,	 12864.468315,	 659.864785,	 2.336606 
2.520000,	 0.250000,	 0.038029,	 1540.441229,	 -0.478616,	 1184.045753,	 12954.390645,	 660.319611,	 2.332872 
2.550000,	 0.250000,	 0.038334,	 1538.287917,	 -0.044661,	 1185.186767,	 13070.900294,	 660.637695,	 2.328489 
2.580000,	 0.250000,	 0.038810,	 1540.554292,	 -0.356702,	 1182.381234,	 13201.622909,	 659.855313,	 2.334685 
2.610000,	 0.250000,	 0.038778,	 1540.760840,	 0.327723,	 1183.490858,	 13203.078722,	 660.164866,	 2.333903 
2.640000,	 0.250000,	 0.038673,	 1536.113055,	 -0.360789,	 1189.063178,	 13229.587746,	 661.717193,	 2.321404 
2.670000,	 0.250000,	 0.038770,	 1535.477124,	 0.023554,	 1189.798447,	 13270.925981,	 661.921751,	 2.319726 
2.700000,	 0.250000,	 0.038964,	 1534.113497,	 -0.376720,	 1191.380530,	 13355.170157,	 662.361686,	 2.316127 
2.730000,	 0.250000,	 0.039135,	 1532.955598,	 -0.075361,	 1192.713628,	 13428.767755,	 662.732158,	 2.313085 
2.760000,	 0.250000,	 0.039399,	 1531.023224,	 -0.363560,	 1194.603163,	 13540.646809,	 663.256911,	 2.308341 
2.790000,	 0.250000,	 0.039633,	 1529.484981,	 0.081612,	 1195.212153,	 13627.906694,	 663.425948,	 2.305434 
2.820000,	 0.250000,	 0.040007,	 1536.053527,	 -0.043334,	 1187.134613,	 13663.688984,	 661.180349,	 2.323199 
2.850000,	 0.250000,	 0.039933,	 1536.785772,	 0.354292,	 1187.447116,	 13642.011079,	 661.267369,	 2.324001 
2.880000,	 0.250000,	 0.039740,	 1529.084483,	 -0.590868,	 1197.189115,	 13687.502567,	 663.974397,	 2.302927 
2.910000,	 0.250000,	 0.040020,	 1527.045668,	 -0.438102,	 1198.668542,	 13800.706591,	 664.384524,	 2.298437 
2.940000,	 0.250000,	 0.040461,	 1533.710306,	 0.209473,	 1190.010034,	 13852.241046,	 661.980605,	 2.316851 
2.970000,	 0.250000,	 0.040524,	 1537.459606,	 0.094786,	 1186.001148,	 13827.122303,	 660.864629,	 2.326437 
3.000000,	 0.250000,	 0.040370,	 1533.041588,	 -0.145430,	 1191.504347,	 13838.283622,	 662.396104,	 2.314388 
0.000000,	 0.014851,	 0.044550,	 1532.900000,	 0.000000,	 1188.333000,	 15230.557603,	 661.513989,	 2.317260 
0.030000,	 0.014851,	 0.044550,	 1532.900000,	 0.000000,	 1188.333000,	 15230.557603,	 661.513989,	 2.317260 
0.060000,	 0.014851,	 0.044550,	 1532.900000,	 0.000000,	 1188.333000,	 15230.557603,	 661.513989,	 2.317260 
0.090000,	 0.014851,	 0.044550,	 1532.900000,	 0.000000,	 1188.333000,	 15230.557603,	 661.513989,	 2.317260 
0.120000,	 0.014851,	 0.044550,	 1532.900000,	 0.000000,	 1188.333000,	 15230.557603,	 661.513989,	 2.317260 
0.150000,	 0.014851,	 0.044550,	 1532.900000,	 0.000000,	 1188.333000,	 15230.557603,	 661.513989,	 2.317260 
0.180000,	 0.014851,	 0.044550,	 1532.900000,	 0.000000,	 1188.333000,	 15230.557603,	 661.513989,	 2.317260 
0.210000,	 0.014851,	 0.044550,	 1532.900000,	 0.000000,	 1188.333000,	 15230.557603,	 661.513989,	 2.317260 
0.240000,	 0.014851,	 0.044550,	 1532.900000,	 0.000000,	 1188.333000,	 15230.557603,	 661.513989,	 2.317260 
0.270000,	 0.014851,	 0.044550,	 1532.900000,	 0.000000,	 1188.333000,	 15230.557603,	 661.513989,	 2.317260 
0.300000,	 0.014851,	 0.044550,	 1532.900000,	 0.000000,	 1188.333000,	 15230.557603,	 661.513989,	 2.317260 
0.330000,	 0.014851,	 0.044550,	 1532.900000,	 0.000000,	 1188.333000,	 15230.557603,	 661.513989,	 2.317260 
0.360000,	 0.014851,	 0.044550,	 1532.900000,	 0.000000,	 1188.333000,	 15230.557603,	 661.513989,	 2.317260 
0.390000,	 0.014851,	 0.044550,	 1532.900000,	 0.000000,	 1188.333000,	 15230.557603,	 661.513989,	 2.317260 
0.420000,	 0.014851,	 0.044550,	 1532.900000,	 0.000000,	 1188.333000,	 15230.557603,	 661.513989,	 2.317260 
0.450000,	 0.014851,	 0.044550,	 1532.900000,	 0.000000,	 1188.333000,	 15230.557603,	 661.513989,	 2.317260 
0.480000,	 0.014851,	 0.044550,	 1532.900000,	 0.000000,	 1188.333000,	 15230.557603,	 661.513989,	 2.317260 
0.510000,	 0.014851,	 0.044550,	 1532.900000,	 -0.000000,	 1188.333000,	 15230.557603,	 661.513989,	 2.317260 
0.540000,	 0.014851,	 0.044550,	 1532.900000,	 0.000000,	 1188.333000,	 15230.557603,	 661.513989,	 2.317260 
0.570000,	 0.014851,	 0.044550,	 1532.900000,	 0.000000,	 1188.333000,	 15230.557603,	 661.513989,	 2.317260 
0.600000,	 0.014851,	 0.044550,	 1532.900000,	 -0.000000,	 1188.333000,	 15230.557603,	 661.513989,	 2.317260 
0.630000,	 0.014851,	 0.044550,	 1532.900000,	 -0.000000,	 1188.333000,	 15230.557603,	 661.513989,	 2.317260 
0.660000,	 0.014851,	 0.044550,	 1532.900000,	 0.000000,	 1188.333000,	 15230.557603,	 661.513989,	 2.317260 
0.690000,	 0.014851,	 0.044550,	 1532.900000,	 0.000000,	 1188.333000,	 15230.557603,	 661.513989,	 2.317260 
0.720000,	 0.014851,	 0.044550,	 1532.900000,	 -0.000000,	 1188.333000,	 15230.557603,	 661.513989,	 2.317260 
0.750000,	 0.014851,	 0.044550,	 1532.900000,	 -0.000000,	 1188.333000,	 15230.557603,	 661.513989,	 2.317260 
0.780000,	 0.014851,	 0.044550,	 1532.900000,	 -0.000000,	 1188.333000,	 15230.557603,	 661.513989,	 2.317260 
0.810000,	 0.014851,	 0.044550,	 1532.900000,	 0.000000,	 1188.333000,	 15230.557603,	 661.513989,	 2.317260 
0.840000,	 0.014851,	 0.044550,	 1532.900000,	 0.000000,	 1188.333000,	 15230.557603,	 661.513989,	 2.317260 
0.870000,	 0.014851,	 0.044550,	 1532.900000,	 -0.000000,	 1188.333000,	 15230.557603,	 661.513989,	 2.317260 
0.900000,	 0.014851,	 0.044550,	 1532.900000,	 -0.000000,	 1188.333000,	 15230.557603,	 661.513989,	 2.317260 
0.930000,	 0.014851,	 0.044550,	 1532.900000,	 0.000000,	 1188.333000,	 15230.557603,	 661.513989,	 2.317260 
0.960000,	 0.014851,	 0.044550,	 1532.900000,	 0.000000,	 1188.333000,	 15230.557603,	 661.513989,	 2.317260 
0.990000,	 0.014851,	 0.045113,	 1533.207314,	 -5.376555,	 1194.549567,	 15503.858858,	 663.242032,	 2.311700 
1.020000,	 0.019802,	 0.048594,	 1527.189978,	 25.096145,	 1201.103866,	 16791.776697,	 665.059093,	 2.296632 
1.050000,	 0.027228,	 0.053812,	 1457.028806,	 73.331837,	 1263.163034,	 19555.530984,	 682.024000,	 2.139035 
1.080000,	 0.034653,	 0.060442,	 1411.310435,	 173.800953,	 1306.403391,	 22716.833452,	 693.599231,	 2.050135 
1.110000,	 0.042079,	 0.064513,	 1426.855069,	 234.575925,	 1289.366953,	 23930.733674,	 689.061874,	 2.098518 
1.140000,	 0.049505,	 0.062839,	 1400.761065,	 243.652422,	 1306.113827,	 23612.348678,	 693.522359,	 2.050105 
1.170000,	 0.056931,	 0.063137,	 1393.561056,	 253.421982,	 1310.870116,	 23810.884778,	 694.783962,	 2.038643 
1.200000,	 0.064356,	 0.063365,	 1407.787778,	 270.561668,	 1307.282839,	 23831.544693,	 693.832651,	 2.066134 
1.230000,	 0.071782,	 0.063170,	 1392.179274,	 276.707840,	 1315.130734,	 23900.755341,	 695.912147,	 2.039642 
1.260000,	 0.079208,	 0.063525,	 1392.804565,	 282.763234,	 1311.344124,	 23965.827678,	 694.909567,	 2.045184 
1.290000,	 0.086634,	 0.063286,	 1393.172214,	 291.379844,	 1310.006843,	 23851.428077,	 694.555150,	 2.049250 
1.320000,	 0.094059,	 0.063349,	 1381.106346,	 291.709815,	 1314.171030,	 23950.938263,	 695.658183,	 2.029124 
1.350000,	 0.101485,	 0.063463,	 1391.010506,	 297.917062,	 1311.381674,	 23943.184934,	 694.919516,	 2.047080 
1.380000,	 0.108911,	 0.063717,	 1389.900013,	 300.597831,	 1312.602177,	 24061.129111,	 695.242822,	 2.045378 
1.410000,	 0.116337,	 0.063635,	 1388.059153,	 305.811257,	 1313.814514,	 24052.546075,	 695.563816,	 2.043447 
1.440000,	 0.123762,	 0.063554,	 1394.736369,	 310.757128,	 1312.107409,	 23990.545359,	 695.111778,	 2.055693 
1.470000,	 0.131188,	 0.063555,	 1387.778069,	 309.717840,	 1311.885064,	 23987.107815,	 695.052880,	 2.045771 
1.500000,	 0.138614,	 0.063534,	 1386.312393,	 311.734548,	 1312.000038,	 23980.967297,	 695.083337,	 2.044258 
1.530000,	 0.146040,	 0.063669,	 1385.407953,	 312.938875,	 1312.766549,	 24046.024535,	 695.286352,	 2.042773 
1.560000,	 0.153465,	 0.063677,	 1381.506520,	 314.455172,	 1313.045930,	 24054.361262,	 695.360333,	 2.037566 
1.590000,	 0.160891,	 0.063694,	 1382.883290,	 317.026935,	 1312.843156,	 24056.857533,	 695.306638,	 2.040477 
1.620000,	 0.168317,	 0.063531,	 1382.593428,	 319.344077,	 1312.980332,	 23997.818360,	 695.342963,	 2.040712 
1.650000,	 0.175743,	 0.063462,	 1382.211359,	 318.628181,	 1313.574816,	 23982.581869,	 695.500362,	 2.039483 
1.680000,	 0.183168,	 0.063582,	 1381.331922,	 318.798828,	 1314.123234,	 24037.961962,	 695.645533,	 2.037881 
1.710000,	 0.190594,	 0.063715,	 1379.472318,	 320.555504,	 1314.592698,	 24096.876571,	 695.769779,	 2.035483 
1.740000,	 0.198020,	 0.063740,	 1383.025431,	 323.069237,	 1314.466273,	 24104.245444,	 695.736322,	 2.041374 
1.770000,	 0.205446,	 0.063664,	 1383.420192,	 324.751772,	 1313.950616,	 24065.879705,	 695.599843,	 2.042879 
1.800000,	 0.212871,	 0.063597,	 1382.354156,	 325.004896,	 1313.312599,	 24029.072543,	 695.430940,	 2.041966 
1.830000,	 0.220297,	 0.063540,	 1382.726078,	 325.577605,	 1313.166611,	 24004.689168,	 695.392287,	 2.042789 
1.860000,	 0.227723,	 0.063636,	 1380.885627,	 324.736187,	 1313.538603,	 24047.744010,	 695.490775,	 2.039646 
1.890000,	 0.235149,	 0.063717,	 1383.761846,	 326.414972,	 1313.820969,	 24083.438607,	 695.565524,	 2.044005 
1.920000,	 0.242574,	 0.063752,	 1383.743913,	 328.300226,	 1314.059032,	 24101.298592,	 695.628539,	 2.044419 
1.950000,	 0.250000,	 0.063740,	 1383.291437,	 328.661673,	 1313.813598,	 24092.131118,	 695.563573,	 2.044097 
1.980000,	 0.257426,	 0.064673,	 1382.577865,	 339.904198,	 1311.500059,	 24401.921190,	 694.950883,	 2.048702 
2.010000,	 0.262376,	 0.057443,	 1444.468442,	 288.244510,	 1261.660076,	 20849.987129,	 681.618130,	 2.160957 
2.040000,	 0.262376,	 0.038036,	 1569.522358,	 47.234105,	 1144.281412,	 12521.385287,	 649.137017,	 2.418955 
2.070000,	 0.262376,	 0.032548,	 1603.771249,	 -40.733065,	 1111.535792,	 10408.245406,	 639.781502,	 2.507557 
2.100000,	 0.262376,	 0.035816,	 1596.345526,	 -1.593919,	 1114.061215,	 11479.268804,	 640.507886,	 2.492313 
2.130000,	 0.262376,	 0.036021,	 1590.224561,	 -6.120997,	 1115.844415,	 11563.567427,	 641.020289,	 2.480789 
2.160000,	 0.262376,	 0.036343,	 1592.139657,	 -5.616942,	 1119.786087,	 11708.146733,	 642.151479,	 2.479399 
2.190000,	 0.262376,	 0.036794,	 1588.242452,	 -5.296130,	 1123.503789,	 11892.633285,	 643.216571,	 2.469233 
2.220000,	 0.262376,	 0.037043,	 1586.338389,	 -4.043976,	 1125.373935,	 11993.172237,	 643.751686,	 2.464217 
2.250000,	 0.262376,	 0.037359,	 1584.243256,	 -2.633960,	 1127.449686,	 12117.803248,	 644.345112,	 2.458691 
2.280000,	 0.262376,	 0.037509,	 1583.344708,	 -2.411662,	 1128.629892,	 12179.151831,	 644.682272,	 2.456011 
2.310000,	 0.262376,	 0.037769,	 1581.397559,	 -2.939348,	 1130.467739,	 12283.632172,	 645.206955,	 2.450997 
2.340000,	 0.262376,	 0.037960,	 1580.533511,	 -3.510908,	 1131.679504,	 12358.971850,	 645.552666,	 2.448348 
2.370000,	 0.262376,	 0.038287,	 1578.375738,	 -4.154994,	 1134.456191,	 12495.883452,	 646.344144,	 2.442014 
2.400000,	 0.262376,	 0.038533,	 1577.019631,	 -4.014680,	 1136.717309,	 12601.375701,	 646.987947,	 2.437487 
2.430000,	 0.262376,	 0.038824,	 1575.073612,	 -2.970935,	 1139.415033,	 12726.483102,	 647.755227,	 2.431592 
2.460000,	 0.262376,	 0.039003,	 1573.955985,	 -2.286569,	 1140.591323,	 12798.360186,	 648.089500,	 2.428612 
2.490000,	 0.262376,	 0.039217,	 1572.474128,	 -2.113962,	 1141.904282,	 12883.371319,	 648.462408,	 2.424929 
2.520000,	 0.262376,	 0.039427,	 1571.682963,	 -3.314473,	 1142.913745,	 12964.037187,	 648.748970,	 2.422642 
2.550000,	 0.262376,	 0.039704,	 1570.218680,	 -3.773162,	 1145.349849,	 13082.781977,	 649.440002,	 2.417811 
2.580000,	 0.262376,	 0.039742,	 1566.529941,	 -1.768180,	 1149.995756,	 13148.642963,	 650.755837,	 2.407248 
2.610000,	 0.262376,	 0.039897,	 1565.473844,	 -0.512565,	 1150.591243,	 13206.513236,	 650.924302,	 2.405002 
2.640000,	 0.262376,	 0.040102,	 1567.751255,	 -1.079379,	 1147.284717,	 13236.327380,	 649.988328,	 2.411969 
2.670000,	 0.262376,	 0.040232,	 1566.767829,	 -1.959468,	 1148.452171,	 13292.592231,	 650.318951,	 2.409232 
2.700000,	 0.262376,	 0.040377,	 1565.806824,	 -2.246337,	 1149.674511,	 13354.682333,	 650.664938,	 2.406474 
2.730000,	 0.262376,	 0.040590,	 1564.526759,	 -2.759639,	 1151.218177,	 13443.165473,	 651.101615,	 2.402896 
2.760000,	 0.262376,	 0.040798,	 1563.506790,	 -2.957063,	 1152.976571,	 13532.827098,	 651.598678,	 2.399498 
2.790000,	 0.262376,	 0.040967,	 1562.525412,	 -1.737064,	 1154.810084,	 13610.385842,	 652.116573,	 2.396084 
2.820000,	 0.262376,	 0.040853,	 1557.949631,	 -0.053997,	 1160.516826,	 13639.657946,	 653.725874,	 2.383185 
2.850000,	 0.262376,	 0.040943,	 1557.287084,	 -0.306545,	 1160.637401,	 13671.094930,	 653.759833,	 2.382048 
2.880000,	 0.262376,	 0.041263,	 1561.005560,	 -2.429093,	 1155.717980,	 13719.648950,	 652.372865,	 2.392815 
2.910000,	 0.262376,	 0.041382,	 1560.343535,	 -2.379121,	 1157.022039,	 13774.574087,	 652.740815,	 2.390452 
2.940000,	 0.262376,	 0.041264,	 1554.794507,	 -0.224314,	 1164.192507,	 13820.572027,	 654.760322,	 2.374601 
2.970000,	 0.262376,	 0.041246,	 1552.875634,	 0.117930,	 1166.196137,	 13838.232759,	 655.323516,	 2.369632 
3.000000,	 0.262376,	 0.041444,	 1555.631094,	 -0.699009,	 1162.603697,	 13861.855144,	 654.313383,	 2.377502 
0.000000,	 0.029703,	 0.044550,	 1532.900000,	 -0.000000,	 1188.333000,	 15230.557603,	 661.513989,	 2.317260 
0.030000,	 0.029703,	 0.044550,	 1532.900000,	 -0.000000,	 1188.333000,	 15230.557603,	 661.513989,	 2.317260 
0.060000,	 0.029703,	 0.044550,	 1532.900000,	 -0.000000,	 1188.333000,	 15230.557603,	 661.513989,	 2.317260 
0.090000,	 0.029703,	 0.044550,	 1532.900000,	 -0.000000,	 1188.333000,	 15230.557603,	 661.513989,	 2.317260 
0.120000,	 0.029703,	 0.044550,	 1532.900000,	 -0.000000,	 1188.333000,	 15230.557603,	 661.513989,	 2.317260 
0.150000,	 0.029703,	 0.044550,	 1532.900000,	 0.000000,	 1188.333000,	 15230.557603,	 661.513989,	 2.317260 
0.180000,	 0.029703,	 0.044550,	 1532.900000,	 0.000000,	 1188.333000,	 15230.557603,	 661.513989,	 2.317260 
0.210000,	 0.029703,	 0.044550,	 1532.900000,	 0.000000,	 1188.333000,	 15230.557603,	 661.513989,	 2.317260 
0.240000,	 0.029703,	 0.044550,	 1532.900000,	 0.000000,	 1188.333000,	 15230.557603,	 661.513989,	 2.317260 
0.270000,	 0.029703,	 0.044550,	 1532.900000,	 -0.000000,	 1188.333000,	 15230.557603,	 661.513989,	 2.317260 
0.300000,	 0.029703,	 0.044550,	 1532.900000,	 0.000000,	 1188.333000,	 15230.557603,	 661.513989,	 2.317260 
0.330000,	 0.029703,	 0.044550,	 1532.900000,	 -0.000000,	 1188.333000,	 15230.557603,	 661.513989,	 2.317260 
0.360000,	 0.029703,	 0.044550,	 1532.900000,	 -0.000000,	 1188.333000,	 15230.557603,	 661.513989,	 2.317260 
0.390000,	 0.029703,	 0.044550,	 1532.900000,	 -0.000000,	 1188.333000,	 15230.557603,	 661.513989,	 2.317260 
0.420000,	 0.029703,	 0.044550,	 1532.900000,	 -0.000000,	 1188.333000,	 15230.557603,	 661.513989,	 2.317260 
0.450000,	 0.029703,	 0.044550,	 1532.900000,	 -0.000000,	 1188.333000,	 15230.557603,	 661.513989,	 2.317260 
0.480000,	 0.029703,	 0.044550,	 1532.900000,	 -0.000000,	 1188.333000,	 15230.557603,	 661.513989,	 2.317260 
0.510000,	 0.029703,	 0.044550,	 1532.900000,	 0.000000,	 1188.333000,	 15230.557603,	 661.513989,	 2.317260 
0.540000,	 0.029703,	 0.044550,	 1532.900000,	 -0.000000,	 1188.333000,	 15230.557603,	 661.513989,	 2.317260 
0.570000,	 0.029703,	 0.044550,	 1532.900000,	 -0.000000,	 1188.333000,	 15230.557603,	 661.513989,	 2.317260 
0.600000,	 0.029703,	 0.044550,	 1532.900000,	 0.000000,	 1188.333000,	 15230.557603,	 661.513989,	 2.317260 
0.630000,	 0.029703,	 0.044550,	 1532.900000,	 0.000000,	 1188.333000,	 15230.557603,	 661.513989,	 2.317260 
0.660000,	 0.029703,	 0.044550,	 1532.900000,	 -0.000000,	 1188.333000,	 15230.557603,	 661.513989,	 2.317260 
0.690000,	 0.029703,	 0.044550,	 1532.900000,	 -0.000000,	 1188.333000,	 15230.557603,	 661.513989,	 2.317260 
0.720000,	 0.029703,	 0.044550,	 1532.900000,	 0.000000,	 1188.333000,	 15230.557603,	 661.513989,	 2.317260 
0.750000,	 0.029703,	 0.044550,	 1532.900000,	 0.000000,	 1188.333000,	 15230.557603,	 661.513989,	 2.317260 
0.780000,	 0.029703,	 0.044550,	 1532.900000,	 0.000000,	 1188.333000,	 15230.557603,	 661.513989,	 2.317260 
0.810000,	 0.029703,	 0.044550,	 1532.900000,	 -0.000000,	 1188.333000,	 15230.557603,	 661.513989,	 2.317260 
0.840000,	 0.029703,	 0.044550,	 1532.900000,	 -0.000000,	 1188.333000,	 15230.557603,	 661.513989,	 2.317260 
0.870000,	 0.029703,	 0.044550,	 1532.900000,	 0.000000,	 1188.333000,	 15230.557603,	 661.513989,	 2.317260 
0.900000,	 0.029703,	 0.044550,	 1532.900000,	 0.000000,	 1188.333000,	 15230.557603,	 661.513989,	 2.317260 
0.930000,	 0.029703,	 0.044550,	 1532.900000,	 -0.000000,	 1188.333000,	 15230.557603,	 661.513989,	 2.317260 
0.960000,	 0.029703,	 0.044550,	 1532.900000,	 -0.000000,	 1188.333000,	 15230.557603,	 661.513989,	 2.317260 
0.990000,	 0.029703,	 0.044457,	 1533.779129,	 -2.807955,	 1187.104881,	 15182.999541,	 661.172069,	 2.319792 
1.020000,	 0.034604,	 0.044383,	 1534.349678,	 -6.306872,	 1186.689088,	 15152.388397,	 661.056269,	 2.321077 
1.050000,	 0.041955,	 0.043731,	 1539.587456,	 -16.087331,	 1183.238386,	 14886.310000,	 660.094446,	 2.332502 
1.080000,	 0.049307,	 0.047475,	 1517.287269,	 29.733209,	 1208.510162,	 16506.127597,	 667.106400,	 2.274867 
1.110000,	 0.056658,	 0.055898,	 1449.403843,	 140.040699,	 1278.026659,	 20552.725139,	 686.024949,	 2.122595 
1.140000,	 0.064010,	 0.061255,	 1423.207997,	 194.576584,	 1300.901918,	 22925.363222,	 692.137262,	 2.075379 
1.170000,	 0.071361,	 0.061131,	 1428.333830,	 207.279111,	 1293.773164,	 22753.700050,	 690.238251,	 2.091011 
1.200000,	 0.078713,	 0.061069,	 1411.221339,	 218.893625,	 1306.808321,	 22959.505374,	 693.706716,	 2.058646 
1.230000,	 0.086064,	 0.062194,	 1413.897307,	 231.525839,	 1301.296307,	 23283.757474,	 692.242170,	 2.069692 
1.260000,	 0.093416,	 0.062107,	 1409.514660,	 245.066343,	 1303.384267,	 23288.599995,	 692.797307,	 2.065049 
1.290000,	 0.100767,	 0.062540,	 1403.307474,	 250.448287,	 1306.348838,	 23504.450076,	 693.584749,	 2.055237 
1.320000,	 0.108119,	 0.062814,	 1409.202222,	 259.993553,	 1303.040370,	 23547.377070,	 692.705904,	 2.068678 
1.350000,	 0.115470,	 0.062860,	 1399.407205,	 261.811867,	 1309.124345,	 23674.736616,	 694.321164,	 2.050474 
1.380000,	 0.122822,	 0.062881,	 1397.040517,	 268.033744,	 1309.625253,	 23691.679272,	 694.453984,	 2.048401 
1.410000,	 0.130173,	 0.062856,	 1395.677089,	 275.327369,	 1310.046946,	 23689.782034,	 694.565781,	 2.048150 
1.440000,	 0.137525,	 0.063078,	 1387.079655,	 277.601179,	 1313.867191,	 23842.794947,	 695.577760,	 2.033684 
1.470000,	 0.144876,	 0.063012,	 1392.224066,	 282.773642,	 1312.816569,	 23798.950025,	 695.299598,	 2.043221 
1.500000,	 0.152228,	 0.063119,	 1392.947067,	 284.204915,	 1312.968367,	 23841.933992,	 695.339795,	 2.044533 
1.530000,	 0.159579,	 0.063157,	 1392.519449,	 288.186175,	 1313.206683,	 23860.923908,	 695.402897,	 2.044897 
1.560000,	 0.166931,	 0.063232,	 1393.586317,	 291.397828,	 1313.420181,	 23892.917277,	 695.459423,	 2.047173 
1.590000,	 0.174282,	 0.063125,	 1389.425007,	 294.890981,	 1313.778574,	 23859.155688,	 695.554302,	 2.042075 
1.620000,	 0.181634,	 0.063269,	 1391.368138,	 297.689128,	 1313.553084,	 23909.453442,	 695.494609,	 2.045821 
1.650000,	 0.188985,	 0.063461,	 1391.782747,	 298.381401,	 1312.937468,	 23970.874591,	 695.331613,	 2.047092 
1.680000,	 0.196337,	 0.063431,	 1392.449669,	 299.696872,	 1311.498564,	 23933.201679,	 694.950486,	 2.049551 
1.710000,	 0.203688,	 0.063517,	 1393.951044,	 302.466297,	 1311.273754,	 23961.472882,	 694.890921,	 2.052680 
1.740000,	 0.211040,	 0.063540,	 1389.364767,	 305.142628,	 1311.993176,	 23983.312359,	 695.081519,	 2.046492 
1.770000,	 0.218391,	 0.063543,	 1389.121089,	 306.830279,	 1312.496554,	 23993.661476,	 695.214849,	 2.046280 
1.800000,	 0.225743,	 0.063465,	 1389.385255,	 308.997787,	 1312.471427,	 23963.655850,	 695.208194,	 2.047345 
1.830000,	 0.233094,	 0.063518,	 1388.513566,	 308.483210,	 1312.932291,	 23992.114312,	 695.330242,	 2.045601 
1.860000,	 0.240446,	 0.063563,	 1389.558438,	 309.439573,	 1312.866981,	 24008.060279,	 695.312947,	 2.047418 
1.890000,	 0.247797,	 0.063513,	 1386.128689,	 310.385041,	 1312.750815,	 23987.016017,	 695.282185,	 2.042990 
1.920000,	 0.255149,	 0.063584,	 1384.595666,	 311.832798,	 1313.499115,	 24027.414490,	 695.480321,	 2.040714 
1.950000,	 0.262500,	 0.063547,	 1384.106673,	 314.252118,	 1314.127376,	 24024.841029,	 695.646629,	 2.040307 
1.980000,	 0.269851,	 0.063450,	 1380.129110,	 315.867579,	 1319.029164,	 24077.581708,	 696.942827,	 2.031463 