TITLE = "Final State"
VARIABLES = "X", "Y", "rho", "u", "v", "T", "p", "c", "M"
ZONE I=51, J=51, DATAPACKING=POINT
0.0000000000000000e+000,	 0.0000000000000000e+000,	 1.1739927643084118e+000,	 6.0000000000000000e+002,	 3.2651140031232435e-017,	 3.0000000000000000e+002,	 1.0132500000000001e+005,	 3.3237670711487283e+002,	 1.8051806494148634e+000 
2.9999999999999999e-002,	 0.0000000000000000e+000,	 1.1739927643084118e+000,	 6.0000000000000000e+002,	 4.9041736215799878e-017,	 3.0000000000000000e+002,	 1.0132500000000001e+005,	 3.3237670711487283e+002,	 1.8051806494148634e+000 
5.9999999999999998e-002,	 0.0000000000000000e+000,	 1.1739927643084118e+000,	 6.0000000000000000e+002,	 8.1822928584930468e-017,	 3.0000000000000000e+002,	 1.0132500000000001e+005,	 3.3237670711487283e+002,	 1.8051806494148634e+000 
8.9999999999999997e-002,	 0.0000000000000000e+000,	 1.1739927643084118e+000,	 6.0000000000000000e+002,	 1.1460412095411787e-016,	 3.0000000000000000e+002,	 1.0132500000000001e+005,	 3.3237670711487283e+002,	 1.8051806494148634e+000 
1.2000000000000000e-001,	 0.0000000000000000e+000,	 1.1739927643084118e+000,	 6.0000000000000000e+002,	 1.4738531332330530e-016,	 3.0000000000000000e+002,	 1.0132500000000001e+005,	 3.3237670711487283e+002,	 1.8051806494148634e+000 
1.4999999999999999e-001,	 0.0000000000000000e+000,	 1.1739927643084118e+000,	 6.0000000000000000e+002,	 1.8426415473857248e-016,	 3.0000000000000000e+002,	 1.0132500000000001e+005,	 3.3237670711487283e+002,	 1.8051806494148634e+000 
1.7999999999999999e-001,	 0.0000000000000000e+000,	 1.5396989618876709e+000,	 4.8465578034678879e+002,	 3.0557827812767768e-001,	 3.5585353081586533e+002,	 1.5762933149820718e+005,	 3.6199751830175472e+002,	 1.3388375670498831e+000 
2.0999999999999999e-001,	 0.0000000000000000e+000,	 2.3078647655790325e+000,	 3.0268985361617752e+002,	 7.6240535394746334e-001,	 4.3229344945011155e+002,	 2.8702448671451292e+005,	 3.9898749187674360e+002,	 7.5864737601614207e-001 
2.3999999999999999e-001,	 0.0000000000000000e+000,	 2.7194971975797131e+000,	 2.3185502233809194e+002,	 1.0217425502899444e+000,	 4.5462399620136762e+002,	 3.5568938803414011e+005,	 4.0916278983059021e+002,	 5.6666265702986274e-001 
2.7000000000000002e-001,	 0.0000000000000000e+000,	 2.7394193176225476e+000,	 2.2293848497063505e+002,	 1.2514073273588358e+000,	 4.5838914057352486e+002,	 3.6126240758349042e+005,	 4.1085361614975250e+002,	 5.4263121560755467e-001 
2.9999999999999999e-001,	 0.0000000000000000e+000,	 2.7595777323362123e+000,	 2.1334450468430560e+002,	 1.5112353019673788e+000,	 4.6267721459382602e+002,	 3.6732516446462768e+005,	 4.1277084054550272e+002,	 5.1687240500442899e-001 
3.3000000000000002e-001,	 0.0000000000000000e+000,	 2.7768486885206372e+000,	 2.0333127463955248e+002,	 1.8090050755593681e+000,	 4.6752059619389036e+002,	 3.7349337357800698e+005,	 4.1492569260170984e+002,	 4.9006201668635146e-001 
3.5999999999999999e-001,	 0.0000000000000000e+000,	 2.7906465591822820e+000,	 1.9280988968250375e+002,	 2.1558801724216288e+000,	 4.7306429346959919e+002,	 3.7979998414459248e+005,	 4.1737846556035043e+002,	 4.6198344685084813e-001 
3.9000000000000001e-001,	 0.0000000000000000e+000,	 2.8000872863787309e+000,	 1.8168018341621337e+002,	 2.5680456286349029e+000,	 4.7950278042218110e+002,	 3.8627147410197172e+005,	 4.2020916313593978e+002,	 4.3239973823902234e-001 
4.1999999999999998e-001,	 0.0000000000000000e+000,	 2.8046149908369218e+000,	 1.6982413977783847e+002,	 3.0666227837674209e+000,	 4.8703694674468517e+002,	 3.9297515747822408e+005,	 4.2349755528805917e+002,	 4.0106919953082765e-001 
4.5000000000000001e-001,	 0.0000000000000000e+000,	 2.7972813725175878e+000,	 1.5599038412579870e+002,	 3.5892254130268642e+000,	 4.9350061242482491e+002,	 3.9714928658286831e+005,	 4.2629849707742090e+002,	 3.6601506330937128e-001 
4.7999999999999998e-001,	 0.0000000000000000e+000,	 2.7622746950547894e+000,	 1.3961295831922567e+002,	 4.5234223478304969e+000,	 4.9652496592056173e+002,	 3.9458256592291425e+005,	 4.2760275897236562e+002,	 3.2667286401179174e-001 
5.1000000000000001e-001,	 2.5000000000000001e-003,	 2.8875625826529814e+000,	 1.2574237798445867e+002,	 9.2279212123339658e+000,	 4.9548746998644879e+002,	 4.1161767896428204e+005,	 4.2715578435604493e+002,	 2.9516287742764419e-001 
5.4000000000000004e-001,	 1.0000000000000000e-002,	 3.0110964289560260e+000,	 1.2687581327651668e+002,	 1.6780140455532067e+001,	 4.9150882808206154e+002,	 4.2578065326845192e+005,	 4.2543735007266628e+002,	 3.0082136293112549e-001 
5.6999999999999995e-001,	 1.7500000000000002e-002,	 2.9320660304135351e+000,	 1.4096804937404661e+002,	 2.3131628378193902e+001,	 4.8713153910842851e+002,	 4.1091304861976497e+005,	 4.2353867915982528e+002,	 3.3728511590768534e-001 
5.9999999999999998e-001,	 2.5000000000000001e-002,	 2.8347031783817740e+000,	 1.5568924890005485e+002,	 2.8377336860285300e+001,	 4.8331169516076807e+002,	 3.9415299636824406e+005,	 4.2187482081359832e+002,	 3.7512140313301284e-001 
6.3000000000000000e-001,	 3.2500000000000001e-002,	 2.7444810799831476e+000,	 1.6903828930672512e+002,	 3.2969511221116655e+001,	 4.7997120604841700e+002,	 3.7897046362050553e+005,	 4.2041436391840244e+002,	 4.0965178377900446e-001 
6.5999999999999992e-001,	 4.0000000000000001e-002,	 2.6607928683536852e+000,	 1.8131553680190092e+002,	 3.7098283614762053e+001,	 4.7693382246569945e+002,	 3.6508931900009274e+005,	 4.1908200655783793e+002,	 4.4161260250312750e-001 
6.8999999999999995e-001,	 4.7500000000000001e-002,	 2.5835923147028210e+000,	 1.9267005347467398e+002,	 4.0859019327734401e+001,	 4.7411371183402912e+002,	 3.5240043610342185e+005,	 4.1784115318100555e+002,	 4.7136295316209142e-001 
7.1999999999999997e-001,	 5.5000000000000000e-002,	 2.5126517612755692e+000,	 2.0321057719801570e+002,	 4.4307187625238306e+001,	 4.7146334750530480e+002,	 3.4080830947656860e+005,	 4.1667162013845603e+002,	 4.9915751966797955e-001 
7.5000000000000000e-001,	 6.2500000000000000e-002,	 2.4476246899041030e+000,	 2.1302178253194890e+002,	 4.7480021546545771e+001,	 4.6895479231501849e+002,	 3.3022180064337980e+005,	 4.1556163157672279e+002,	 5.2519048391189682e-001 
7.8000000000000003e-001,	 7.0000000000000007e-002,	 2.3880909579871608e+000,	 2.2217373189751004e+002,	 5.0405827692145394e+001,	 4.6657043509103664e+002,	 3.2055165047926601e+005,	 4.1450384298548488e+002,	 5.4962075965840484e-001 
8.0999999999999994e-001,	 7.7499999999999999e-002,	 2.3335946782324402e+000,	 2.3072685286069691e+002,	 5.3108197227910125e+001,	 4.6429823953642801e+002,	 3.1171119503690297e+005,	 4.1349329538048642e+002,	 5.7258518348605603e-001 
8.3999999999999997e-001,	 8.5000000000000006e-002,	 2.2836726547430084e+000,	 2.3873461002070044e+002,	 5.5607940464296263e+001,	 4.6212923284604472e+002,	 3.0361780103103013e+005,	 4.1252633109841548e+002,	 5.9420544099684536e-001 
8.7000000000000000e-001,	 9.2499999999999999e-002,	 2.2378745817202290e+000,	 2.4624493354411152e+002,	 5.7923948378738856e+001,	 4.6005617384947016e+002,	 2.9619419601482979e+005,	 4.1160001807693681e+002,	 6.1459158853764972e-001 
8.9999999999999991e-001,	 1.0000000000000001e-001,	 2.1957766221164685e+000,	 2.5330100601680334e+002,	 6.0073537688657353e+001,	 4.5807285669005648e+002,	 2.8936943254878669e+005,	 4.1071184926556191e+002,	 6.3384379878300379e-001 
9.2999999999999994e-001,	 1.0750000000000000e-001,	 2.1569890846486208e+000,	 2.5994177947068567e+002,	 6.2072575872931630e+001,	 4.5617374559829057e+002,	 2.8307933801819943e+005,	 4.0985958577831900e+002,	 6.5205335922900642e-001 
9.5999999999999996e-001,	 1.1500000000000000e-001,	 2.1211603321013222e+000,	 2.6620235289723399e+002,	 6.3935512924889196e+001,	 4.5435379007321933e+002,	 2.7726662074693159e+005,	 4.0904117864570759e+002,	 6.6930330057866627e-001 
9.8999999999999999e-001,	 1.2250000000000000e-001,	 2.0879769471709526e+000,	 2.7211441277730603e+002,	 6.5675419883748631e+001,	 4.5260829456430452e+002,	 2.7188055357988382e+005,	 4.0825471377863607e+002,	 6.8566922936737329e-001 
1.0200000000000000e+000,	 1.3000000000000000e-001,	 2.0571611302651380e+000,	 2.7770670120647560e+002,	 6.7304072566747294e+001,	 4.5093280751003920e+002,	 2.6687634474967862e+005,	 4.0749836473465871e+002,	 7.0122030773568345e-001 
1.0500000000000000e+000,	 1.3750000000000001e-001,	 2.0284667797970855e+000,	 2.8300537626502535e+002,	 6.8832062834796545e+001,	 4.4932307023390757e+002,	 2.6221441013112367e+005,	 4.0677037182833635e+002,	 7.1602000203837124e-001 
1.0800000000000001e+000,	 1.4499999999999999e-001,	 2.0016760353015819e+000,	 2.8803409971978817e+002,	 7.0268892943417086e+001,	 4.4777508169090572e+002,	 2.5785980443595711e+005,	 4.0606907337932432e+002,	 7.3012611518077175e-001 
1.1099999999999999e+000,	 1.5250000000000000e-001,	 1.9765975532531832e+000,	 2.9281385742213445e+002,	 7.1623031392271201e+001,	 4.4628521105375853e+002,	 2.5378192446907685e+005,	 4.0539295885768206e+002,	 7.4359013177716315e-001 
1.1399999999999999e+000,	 1.6000000000000000e-001,	 1.9530667103090749e+000,	 2.9736259002750933e+002,	 7.2901905575677603e+001,	 4.4485021817226561e+002,	 2.4995442120435950e+005,	 4.0474068047159176e+002,	 7.5645615122957754e-001 
1.1699999999999999e+000,	 1.6750000000000001e-001,	 1.9309474537486579e+000,	 3.0169471356934525e+002,	 7.4111813717917016e+001,	 4.4346720173860979e+002,	 2.4635529354606132e+005,	 4.0411103173163821e+002,	 7.6875957670920492e-001 
1.2000000000000000e+000,	 1.7499999999999999e-001,	 1.9101302800154110e+000,	 3.0582082875539578e+002,	 7.5257890072218032e+001,	 4.4213429873656958e+002,	 2.4296691167888473e+005,	 4.0350326845760287e+002,	 7.8052563502743999e-001 
1.2300000000000000e+000,	 1.8250000000000000e-001,	 1.8905311078944971e+000,	 3.0974727504013651e+002,	 7.6344047955035222e+001,	 4.4085142218582092e+002,	 2.3977616596584619e+005,	 4.0291744993806179e+002,	 7.9176741730798106e-001 
1.2600000000000000e+000,	 1.9000000000000000e-001,	 1.8720948644732753e+000,	 3.1347527359536178e+002,	 7.7372815945786414e+001,	 4.3962028341921712e+002,	 2.3677481791272009e+005,	 4.0235445516020536e+002,	 8.0248346110546798e-001 
1.2900000000000000e+000,	 1.9750000000000001e-001,	 1.8547996628655739e+000,	 3.1699971043437120e+002,	 7.8345122683877591e+001,	 4.3844467240604263e+002,	 2.3396007021795661e+005,	 4.0181611673877546e+002,	 8.1265419964454910e-001 
1.3199999999999998e+000,	 2.0499999999999999e-001,	 1.8386625464286439e+000,	 3.2030735462881842e+002,	 7.9259979684479390e+001,	 4.3733112495469152e+002,	 2.3133553782720453e+005,	 4.0130553262014308e+002,	 8.2223660365223505e-001 
1.3499999999999999e+000,	 2.1249999999999999e-001,	 1.8237483734228224e+000,	 3.2337422430729293e+002,	 8.0113997007028743e+001,	 4.3628991773218593e+002,	 2.2891277596536282e+005,	 4.0082752957674779e+002,	 8.3115630549765085e-001 
1.3799999999999999e+000,	 2.2000000000000000e-001,	 1.8101825099082731e+000,	 3.2616168932767312e+002,	 8.0900685497650130e+001,	 4.3533650563174945e+002,	 2.2671350375005891e+005,	 4.0038933148039496e+002,	 8.3929605950717556e-001 
1.4099999999999999e+000,	 2.2750000000000001e-001,	 1.7981678907352534e+000,	 3.2861022873107072e+002,	 8.1609506346680391e+001,	 4.3449374527573934e+002,	 2.2477277368942421e+005,	 4.0000159036892921e+002,	 8.4647756290657727e-001 
1.4399999999999999e+000,	 2.3499999999999999e-001,	 1.7880080341986142e+000,	 3.3062706470555963e+002,	 8.2224610015037285e+001,	 4.3379612162972927e+002,	 2.2314392520627726e+005,	 3.9968033986543230e+002,	 8.5242627252477676e-001 
1.4700000000000000e+000,	 2.4249999999999999e-001,	 1.7801440496645187e+000,	 3.3205362676958640e+002,	 8.2723015896311196e+001,	 4.3330054263011039e+002,	 2.2190869392064452e+005,	 3.9945197246386522e+002,	 8.5668053627367424e-001 
1.5000000000000000e+000,	 2.5000000000000000e-001,	 1.7768512437810962e+000,	 3.3259390101584245e+002,	 8.2939657240951178e+001,	 4.3311227551255905e+002,	 2.2140198028472130e+005,	 3.9936518300165039e+002,	 8.5831057570171321e-001 
0.0000000000000000e+000,	 2.0000000000000000e-002,	 1.1739927643084118e+000,	 6.0000000000000000e+002,	 -9.6707918857736265e-017,	 3.0000000000000000e+002,	 1.0132500000000001e+005,	 3.3237670711487283e+002,	 1.8051806494148634e+000 
2.9999999999999999e-002,	 2.0000000000000000e-002,	 1.1739927643084118e+000,	 6.0000000000000000e+002,	 -1.4587970741147272e-016,	 3.0000000000000000e+002,	 1.0132500000000001e+005,	 3.3237670711487283e+002,	 1.8051806494148634e+000 
5.9999999999999998e-002,	 2.0000000000000000e-002,	 1.1739927643084118e+000,	 6.0000000000000000e+002,	 -2.4422328451890500e-016,	 3.0000000000000000e+002,	 1.0132500000000001e+005,	 3.3237670711487283e+002,	 1.8051806494148634e+000 
8.9999999999999997e-002,	 2.0000000000000000e-002,	 1.1739927643084118e+000,	 6.0000000000000000e+002,	 -3.4256686162597558e-016,	 3.0000000000000000e+002,	 1.0132500000000001e+005,	 3.3237670711487283e+002,	 1.8051806494148634e+000 
1.2000000000000000e-001,	 2.0000000000000000e-002,	 1.1739927643084118e+000,	 6.0000000000000000e+002,	 -4.4091043873303976e-016,	 3.0000000000000000e+002,	 1.0132500000000001e+005,	 3.3237670711487283e+002,	 1.8051806494148634e+000 
1.4999999999999999e-001,	 2.0000000000000000e-002,	 1.1739927643084118e+000,	 6.0000000000000000e+002,	 -5.3720519131734820e-016,	 3.0000000000000000e+002,	 1.0132500000000001e+005,	 3.3237670711487283e+002,	 1.8051806494148634e+000 
1.7999999999999999e-001,	 2.0000000000000000e-002,	 1.4866545537855418e+000,	 4.9972934127688859e+002,	 7.6698270226838938e-001,	 3.4977938978503062e+002,	 1.4960090429224711e+005,	 3.5889471365909122e+002,	 1.3924137381758785e+000 
2.0999999999999999e-001,	 2.0000000000000000e-002,	 2.2349649425535798e+000,	 3.2227954190111745e+002,	 2.0235222543408273e+000,	 4.2478184492845367e+002,	 2.7312823580570711e+005,	 3.9550586399092543e+002,	 8.1487007856641491e-001 
2.3999999999999999e-001,	 2.0000000000000000e-002,	 2.6918297891653706e+000,	 2.3941423619838429e+002,	 2.7231519777115483e+000,	 4.5178992028938916e+002,	 3.4987593310919066e+005,	 4.0788545815252644e+002,	 5.8700235026024727e-001 
2.7000000000000002e-001,	 2.0000000000000000e-002,	 2.7253717151632646e+000,	 2.2896262716888577e+002,	 3.1503212182689455e+000,	 4.5521086915895688e+002,	 3.5691788027960202e+005,	 4.0942679825721444e+002,	 5.5928019348232250e-001 
2.9999999999999999e-001,	 2.0000000000000000e-002,	 2.7489831375349860e+000,	 2.1927536134102544e+002,	 3.5994802380023749e+000,	 4.5863478211787242e+002,	 3.6271791066573793e+005,	 4.1096368551096401e+002,	 5.3363572119402847e-001 
3.3000000000000002e-001,	 2.0000000000000000e-002,	 2.7703032280068198e+000,	 2.0925383462448315e+002,	 4.0839023974201911e+000,	 4.6240906292380600e+002,	 3.6853911018431938e+005,	 4.1265120937639642e+002,	 5.0719270370393055e-001 
3.5999999999999999e-001,	 2.0000000000000000e-002,	 2.7887420945179433e+000,	 1.9886432811704390e+002,	 4.6154909924098977e+000,	 4.6664193933322093e+002,	 3.7438811879967846e+005,	 4.1453560415749700e+002,	 4.7985717015041324e-001 
3.9000000000000001e-001,	 2.0000000000000000e-002,	 2.8033739575317251e+000,	 1.8808595019299511e+002,	 5.2095227700446642e+000,	 4.7148358648647377e+002,	 3.8025729152075871e+005,	 4.1668056348327502e+002,	 4.5156433584421984e-001 
4.1999999999999998e-001,	 2.0000000000000000e-002,	 2.8132601270150062e+000,	 1.7691325286024983e+002,	 5.8846634146137404e+000,	 4.7711018769854746e+002,	 3.8615220446358254e+005,	 4.1915948550829467e+002,	 4.2230010930867934e-001 
4.5000000000000001e-001,	 2.0000000000000000e-002,	 2.8132427164594831e+000,	 1.6471060760782618e+002,	 6.5928855979711818e+000,	 4.8231110099538165e+002,	 3.9035918130096182e+005,	 4.2143789346920636e+002,	 3.9114304705994896e-001 
4.7999999999999998e-001,	 2.0000000000000000e-002,	 2.7995604438888395e+000,	 1.5080206495995253e+002,	 7.6530972798550803e+000,	 4.8526505548638494e+002,	 3.9083981983184762e+005,	 4.2272648918492155e+002,	 3.5719581943054241e-001 
5.1000000000000001e-001,	 2.2450000000000001e-002,	 2.8871416207890248e+000,	 1.3825854827806231e+002,	 1.1566937079042310e+001,	 4.8580691545110926e+002,	 4.0351688998498215e+005,	 4.2296243719969465e+002,	 3.2802335819785861e-001 
5.4000000000000004e-001,	 2.9800000000000000e-002,	 2.9503079813716373e+000,	 1.3850474316778656e+002,	 1.7865527894141671e+001,	 4.8416752928381936e+002,	 4.1095375373082299e+005,	 4.2224817736171161e+002,	 3.3073491329502047e-001 
5.6999999999999995e-001,	 3.7150000000000002e-002,	 2.8678732251215218e+000,	 1.5049917774394399e+002,	 2.3615350882359550e+001,	 4.8131581690800948e+002,	 3.9711840950505587e+005,	 4.2100283501470892e+002,	 3.6185194528878450e-001 
5.9999999999999998e-001,	 4.4499999999999998e-002,	 2.7759637354925601e+000,	 1.6320978425153396e+002,	 2.8629874420167138e+001,	 4.7850526502288898e+002,	 3.8214699289414368e+005,	 4.1977185249471114e+002,	 3.9474264387736535e-001 
6.3000000000000000e-001,	 5.1850000000000000e-002,	 2.6915226730421273e+000,	 1.7506364138815979e+002,	 3.3129117177867940e+001,	 4.7585869162849076e+002,	 3.6847326809293410e+005,	 4.1860938103012506e+002,	 4.2562532107118989e-001 
6.5999999999999992e-001,	 5.9200000000000003e-002,	 2.6136517392297880e+000,	 1.8618826214895955e+002,	 3.7216740941940138e+001,	 4.7332882372419624e+002,	 3.5591034226183681e+005,	 4.1749514505065559e+002,	 4.5478712425250589e-001 
6.8999999999999995e-001,	 6.6549999999999998e-002,	 2.5420426012261874e+000,	 1.9663392133965530e+002,	 4.0953764312507779e+001,	 4.7089726678162708e+002,	 3.4438080083940341e+005,	 4.1642139854902240e+002,	 4.8233221041009655e-001 
7.1999999999999997e-001,	 7.3899999999999993e-002,	 2.4763118771149890e+000,	 2.0644566528591128e+002,	 4.4381981117377208e+001,	 4.6855480695646594e+002,	 3.3380718152116501e+005,	 4.1538437139169724e+002,	 5.0835430313350005e-001 
7.5000000000000000e-001,	 8.1250000000000003e-002,	 2.4160321768248423e+000,	 2.1566477453590699e+002,	 4.7533734537511194e+001,	 4.6629679321783675e+002,	 3.2411197718179569e+005,	 4.1438227265513706e+002,	 5.3294028908780899e-001 
7.8000000000000003e-001,	 8.8599999999999998e-002,	 2.3607530677097963e+000,	 2.2433044165992192e+002,	 5.0436269821971280e+001,	 4.6412060963023703e+002,	 3.1521825041593693e+005,	 4.1341419126667091e+002,	 5.5617429598217283e-001 
8.0999999999999994e-001,	 9.5949999999999994e-002,	 2.3100215747033834e+000,	 2.3248037926796036e+002,	 5.3113710194639964e+001,	 4.6202437107437947e+002,	 3.0705124174304720e+005,	 4.1247952525594360e+002,	 5.7813906844360496e-001 
8.3999999999999997e-001,	 1.0330000000000000e-001,	 2.2633983071880408e+000,	 2.4015090732846318e+002,	 5.5587930829340110e+001,	 4.6000627466287642e+002,	 2.9953989959183719e+005,	 4.1157769573434041e+002,	 5.9891598031458515e-001 
8.7000000000000000e-001,	 1.1065000000000000e-001,	 2.2204690317430202e+000,	 2.4737678085510836e+002,	 5.7878909232147386e+001,	 4.5806432162049578e+002,	 2.9261805829815211e+005,	 4.1070802294134211e+002,	 6.1858434223118119e-001 
8.9999999999999991e-001,	 1.1799999999999999e-001,	 2.1808522800608534e+000,	 2.5419095927390697e+002,	 6.0004833766671503e+001,	 4.5619623444429402e+002,	 2.8622521041428909e+005,	 4.0986968845914970e+002,	 6.3722052986162758e-001 
9.2999999999999994e-001,	 1.2534999999999999e-001,	 2.1442026779079595e+000,	 2.6062447463689216e+002,	 6.1982164795871292e+001,	 4.5439944619533321e+002,	 2.8030675575264322e+005,	 4.0906172955260473e+002,	 6.5489739063847097e-001 
9.5999999999999996e-001,	 1.3270000000000001e-001,	 2.1102122769515375e+000,	 2.6670638921881709e+002,	 6.3825670400677915e+001,	 4.5267110576987085e+002,	 2.7481400223700318e+005,	 4.0828304079060479e+002,	 6.7168391105934699e-001 
9.8999999999999999e-001,	 1.4005000000000001e-001,	 2.0786089736990911e+000,	 2.7246401816211693e+002,	 6.5548524108340416e+001,	 4.5100799110400044e+002,	 2.6970374209545512e+005,	 4.0753233422430651e+002,	 6.8764567187183023e-001 
1.0200000000000000e+000,	 1.4740000000000000e-001,	 2.0491543768788976e+000,	 2.7792321761610270e+002,	 6.7162534116282274e+001,	 4.4940617335949298e+002,	 2.6493763144989428e+005,	 4.0680798655219041e+002,	 7.0284578329596858e-001 
1.0500000000000000e+000,	 1.5475000000000000e-001,	 2.0216398493254246e+000,	 2.8310791645984273e+002,	 6.8678361905765456e+001,	 4.4786124198716789e+002,	 2.6048169373585578e+005,	 4.0610813914048208e+002,	 7.1734362779592808e-001 
1.0800000000000001e+000,	 1.6209999999999999e-001,	 1.9958784786865678e+000,	 2.8803904693057979e+002,	 7.0105497887192058e+001,	 4.4636960371042795e+002,	 2.5630592487830122e+005,	 4.0543128700604444e+002,	 7.3119112358496119e-001 
1.1099999999999999e+000,	 1.6944999999999999e-001,	 1.9717018378520006e+000,	 2.9273459527113363e+002,	 7.1452235617129546e+001,	 4.4492881025054430e+002,	 2.5238393484581556e+005,	 4.0477643183813910e+002,	 7.4443234037285011e-001 
1.1399999999999999e+000,	 1.7680000000000001e-001,	 1.9489629964297950e+000,	 2.9720993927461870e+002,	 7.2725765183796184e+001,	 4.4353701817399053e+002,	 2.4869290963659139e+005,	 4.0414284071466079e+002,	 7.5710460548429981e-001 
1.1699999999999999e+000,	 1.8415000000000001e-001,	 1.9275396517778574e+000,	 3.0147734488381832e+002,	 7.3932146634869724e+001,	 4.4219303909923599e+002,	 2.4521394254722321e+005,	 4.0353007155929413e+002,	 7.6923708479512620e-001 
1.2000000000000000e+000,	 1.9150000000000000e-001,	 1.9073351062810089e+000,	 3.0554547008447418e+002,	 7.5076242277337045e+001,	 4.4089655328853627e+002,	 2.4193218270877685e+005,	 4.0293807326208793e+002,	 7.8084921157770892e-001 
1.2300000000000000e+000,	 1.9885000000000000e-001,	 1.8882793245114948e+000,	 3.0941873065531775e+002,	 7.6161637352598063e+001,	 4.3964840379456132e+002,	 2.3883703776920453e+005,	 4.0236732328504161e+002,	 7.9194868680243924e-001 
1.2600000000000000e+000,	 2.0619999999999999e-001,	 1.8703309729536350e+000,	 3.1309639320772118e+002,	 7.7190533494080341e+001,	 4.3845098605496094e+002,	 2.3592255043025562e+005,	 4.0181900982531238e+002,	 8.0252869452277975e-001 
1.2900000000000000e+000,	 2.1354999999999999e-001,	 1.8534811122753507e+000,	 3.1657126319605595e+002,	 7.8163559431342577e+001,	 4.3730877889407850e+002,	 2.3318805392908343e+005,	 4.0129527984850097e+002,	 8.1256392684985190e-001 
1.3199999999999998e+000,	 2.2090000000000001e-001,	 1.8377594516743334e+000,	 3.1982774519296908e+002,	 7.9079453521895260e+001,	 4.3622909587089828e+002,	 2.3063925765023479e+005,	 4.0079958952458765e+002,	 8.2200476608498496e-001 
1.3499999999999999e+000,	 2.2825000000000001e-001,	 1.8232438492377363e+000,	 3.2283902411929103e+002,	 7.9934589343258835e+001,	 4.3522314348768691e+002,	 2.2828988851439417e+005,	 4.0033719715704865e+002,	 8.3076890222215427e-001 
1.3799999999999999e+000,	 2.3560000000000000e-001,	 1.8100734809230867e+000,	 3.2556299360136757e+002,	 8.0722349380746053e+001,	 4.3430750555614463e+002,	 2.2616400066307432e+005,	 3.9991585361266027e+002,	 8.3872936216317395e-001 
1.4099999999999999e+000,	 2.4295000000000000e-001,	 1.7984656925246971e+000,	 3.2793608537708684e+002,	 8.1432479936754035e+001,	 4.3350630738743439e+002,	 2.2429909217465759e+005,	 3.9954680661993655e+002,	 8.4569674750170032e-001 
1.4399999999999999e+000,	 2.5030000000000002e-001,	 1.7887363162089143e+000,	 3.2986246259094537e+002,	 8.2050982093306203e+001,	 4.3285481845522588e+002,	 2.2275041317277835e+005,	 3.9924646705311676e+002,	 8.5138917048155394e-001 
1.4700000000000000e+000,	 2.5764999999999999e-001,	 1.7813251435717130e+000,	 3.3119058885413472e+002,	 8.2562449674331361e+001,	 4.3240691143602288e+002,	 2.2159796226897935e+005,	 3.9903984860709107e+002,	 8.5536940405902995e-001 
1.5000000000000000e+000,	 2.6500000000000001e-001,	 1.7782627338787647e+000,	 3.3168164186434234e+002,	 8.2789545405199618e+001,	 4.3224207227262877e+002,	 2.2113266577834214e+005,	 3.9896378175540440e+002,	 8.5686448404485138e-001 
0.0000000000000000e+000,	 4.0000000000000001e-002,	 1.1739927643084118e+000,	 6.0000000000000000e+002,	 -2.2012858791780220e-017,	 3.0000000000000000e+002,	 1.0132500000000001e+005,	 3.3237670711487283e+002,	 1.8051806494148634e+000 
2.9999999999999999e-002,	 4.0000000000000001e-002,	 1.1739927643084118e+000,	 6.0000000000000000e+002,	 -3.0208156884110931e-017,	 3.0000000000000000e+002,	 1.0132500000000001e+005,	 3.3237670711487283e+002,	 1.8051806494148634e+000 
5.9999999999999998e-002,	 4.0000000000000001e-002,	 1.1739927643084118e+000,	 6.0000000000000000e+002,	 -4.6598753068862955e-017,	 3.0000000000000000e+002,	 1.0132500000000001e+005,	 3.3237670711487283e+002,	 1.8051806494148634e+000 
8.9999999999999997e-002,	 4.0000000000000001e-002,	 1.1739927643084118e+000,	 6.0000000000000000e+002,	 -6.2989349253281728e-017,	 3.0000000000000000e+002,	 1.0132500000000001e+005,	 3.3237670711487283e+002,	 1.8051806494148634e+000 
1.2000000000000000e-001,	 4.0000000000000001e-002,	 1.1739927643084118e+000,	 6.0000000000000000e+002,	 -6.2989349252997615e-017,	 3.0000000000000000e+002,	 1.0132500000000001e+005,	 3.3237670711487283e+002,	 1.8051806494148634e+000 
1.4999999999999999e-001,	 4.0000000000000001e-002,	 1.1739927643084118e+000,	 6.0000000000000000e+002,	 -6.2989349252997615e-017,	 3.0000000000000000e+002,	 1.0132500000000001e+005,	 3.3237670711487283e+002,	 1.8051806494148634e+000 
1.7999999999999999e-001,	 4.0000000000000001e-002,	 1.3695699352748871e+000,	 5.3441536125178118e+002,	 1.5153216440609372e+000,	 3.3454549957809627e+002,	 1.3181636864640724e+005,	 3.5099226803023549e+002,	 1.5225905475789490e+000 
2.0999999999999999e-001,	 4.0000000000000001e-002,	 2.0433145218325564e+000,	 3.7075889537967851e+002,	 4.5634311412851574e+000,	 4.0556605539711325e+002,	 2.3841125714256370e+005,	 3.8645662158481110e+002,	 9.5945303500010026e-001 
2.3999999999999999e-001,	 4.0000000000000001e-002,	 2.5933120833757708e+000,	 2.5995990592916041e+002,	 6.5318463460726797e+000,	 4.4543816995686757e+002,	 3.3233199176591722e+005,	 4.0500806196080958e+002,	 6.4206611711821360e-001 
2.7000000000000002e-001,	 4.0000000000000001e-002,	 2.6794027057386223e+000,	 2.4245881691806497e+002,	 7.3570940362078145e+000,	 4.5005540409742298e+002,	 3.4692365240277519e+005,	 4.0710172632138466e+002,	 5.9584717093055717e-001 
2.9999999999999999e-001,	 4.0000000000000001e-002,	 2.7064126913466842e+000,	 2.3292843618818245e+002,	 8.1481576840948282e+000,	 4.5249237185144500e+002,	 3.5231831566261331e+005,	 4.0820242902687994e+002,	 5.7096894318649261e-001 
3.3000000000000002e-001,	 4.0000000000000001e-002,	 2.7309039624471345e+000,	 2.2334465805325459e+002,	 8.9704581098009903e+000,	 4.5496581016255755e+002,	 3.5744985606582876e+005,	 4.0931657766037563e+002,	 5.4609254369075566e-001 
3.5999999999999999e-001,	 4.0000000000000001e-002,	 2.7531003643054430e+000,	 2.1363443536806054e+002,	 9.8378402388553603e+000,	 4.5754836194867318e+002,	 3.6240066526765074e+005,	 4.1047664879429624e+002,	 5.2100608334414844e-001 
3.9000000000000001e-001,	 4.0000000000000001e-002,	 2.7722422384972534e+000,	 2.0384723207642588e+002,	 1.0763518638629451e+001,	 4.6031413914763255e+002,	 3.6712624197275005e+005,	 4.1171539924921291e+002,	 4.9580657344325341e-001 
4.1999999999999998e-001,	 4.0000000000000001e-002,	 2.7872462572840471e+000,	 1.9406921307921613e+002,	 1.1761781067324232e+001,	 4.6337293341456450e+002,	 3.7156597722389078e+005,	 4.1308106175430066e+002,	 4.7067106754321469e-001 
4.5000000000000001e-001,	 4.0000000000000001e-002,	 2.7955921511211081e+000,	 1.8430606567726511e+002,	 1.2810016478296355e+001,	 4.6661411499927499e+002,	 3.7528535927837784e+005,	 4.1452324527153780e+002,	 4.4569443427212424e-001 
4.7999999999999998e-001,	 4.0000000000000001e-002,	 2.8046196480452736e+000,	 1.7415240695194566e+002,	 1.4202516270178778e+001,	 4.6921146795207233e+002,	 3.7859295465787372e+005,	 4.1567534185001108e+002,	 4.2035346590579420e-001 
5.1000000000000001e-001,	 4.2400000000000000e-002,	 2.8412574620297546e+000,	 1.6502754157199669e+002,	 1.7312251820641883e+001,	 4.7106254634371101e+002,	 3.8505175053836661e+005,	 4.1649447171490027e+002,	 3.9840415898432380e-001 
5.4000000000000004e-001,	 4.9599999999999998e-002,	 2.8330549751562573e+000,	 1.6514857829191905e+002,	 2.1977812553729365e+001,	 4.7143985323353945e+002,	 3.8424766088027059e+005,	 4.1666123808193652e+002,	 3.9985613731556158e-001 
5.6999999999999995e-001,	 5.6800000000000003e-002,	 2.7545195807024911e+000,	 1.7381853919920093e+002,	 2.6682233036424254e+001,	 4.7018154111692826e+002,	 3.7259873537331633e+005,	 4.1610481482690977e+002,	 4.2262082370940013e-001 
5.9999999999999998e-001,	 6.4000000000000001e-002,	 2.6766520049610167e+000,	 1.8311161805109316e+002,	 3.1099682568053034e+001,	 4.6858111447892713e+002,	 3.6083331654508709e+005,	 4.1539603233310163e+002,	 4.4712470437390794e-001 
6.3000000000000000e-001,	 7.1199999999999999e-002,	 2.6051862104449364e+000,	 1.9222035525824612e+002,	 3.5207988142432534e+001,	 4.6685030600965632e+002,	 3.4990194453014591e+005,	 4.1462814381028937e+002,	 4.7130950679344952e-001 
6.5999999999999992e-001,	 7.8399999999999997e-002,	 2.5392841896149951e+000,	 2.0108828117589030e+002,	 3.9009598249377866e+001,	 4.6504516507381862e+002,	 3.3973194038356905e+005,	 4.1382575904571854e+002,	 4.9498397613282308e-001 
6.8999999999999995e-001,	 8.5599999999999996e-002,	 2.4785313149907653e+000,	 2.0965422496977808e+002,	 4.2519215616146163e+001,	 4.6320548190878480e+002,	 3.3029198750160338e+005,	 4.1300641637569026e+002,	 5.1796377814618166e-001 
7.1999999999999997e-001,	 9.2799999999999994e-002,	 2.4225050804934547e+000,	 2.1788403690350918e+002,	 4.5756456287368039e+001,	 4.6135786281162365e+002,	 3.2153818842916843e+005,	 4.1218190001184684e+002,	 5.4014190072709722e-001 
7.5000000000000000e-001,	 1.0000000000000001e-001,	 2.3707945184196664e+000,	 2.2576049722269428e+002,	 4.8742786118191084e+001,	 4.5952107337243518e+002,	 3.1342186069732031e+005,	 4.1136057835268389e+002,	 5.6145989543401376e-001 