TITLE = "Final State"
VARIABLES = "X", "Y", "rho", "u", "v", "T", "p", "c", "M"
ZONE I=101, J=51, DATAPACKING=POINT
0.000000,	 0.000000,	 0.044552,	 1532.898621,	 -0.003843,	 1188.339934,	 15231.204188,	 661.515919,	 2.317251 
0.004140,	 0.000000,	 0.044551,	 1532.897723,	 0.000678,	 1188.339404,	 15230.904732,	 661.515771,	 2.317250 
0.008280,	 0.000000,	 0.044550,	 1532.899851,	 0.000534,	 1188.334822,	 15230.704298,	 661.514496,	 2.317258 
0.012421,	 0.000000,	 0.044550,	 1532.900832,	 0.000241,	 1188.332329,	 15230.535924,	 661.513802,	 2.317262 
0.016561,	 0.000000,	 0.044550,	 1532.900027,	 -0.000193,	 1188.332346,	 15230.646742,	 661.513807,	 2.317261 
0.020701,	 0.000000,	 0.044550,	 1532.900579,	 -0.000295,	 1188.332581,	 15230.706807,	 661.513872,	 2.317261 
0.024841,	 0.000000,	 0.044551,	 1532.904192,	 -0.000695,	 1188.333484,	 15230.773782,	 661.514123,	 2.317266 
0.028981,	 0.000000,	 0.044554,	 1532.891884,	 -0.008931,	 1188.348290,	 15232.165465,	 661.518244,	 2.317233 
0.033122,	 0.000000,	 0.044546,	 1532.944890,	 -0.002897,	 1188.281312,	 15228.561532,	 661.499602,	 2.317378 
0.037262,	 0.000000,	 0.044506,	 1533.151033,	 0.092183,	 1188.040399,	 15211.854958,	 661.432542,	 2.317925 
0.041402,	 0.000000,	 0.044461,	 1533.209602,	 0.000744,	 1187.718092,	 15192.422420,	 661.342815,	 2.318328 
0.045542,	 0.000000,	 0.044720,	 1531.476903,	 -0.407903,	 1189.594643,	 15304.974237,	 661.865057,	 2.313881 
0.049682,	 0.000000,	 0.045450,	 1526.709362,	 -0.743481,	 1195.370683,	 15630.334516,	 663.469944,	 2.301098 
0.053823,	 0.000000,	 0.045834,	 1523.286003,	 -2.325746,	 1199.484018,	 15816.479675,	 664.610482,	 2.292001 
0.057963,	 0.000000,	 0.044802,	 1529.702447,	 -0.250633,	 1192.168139,	 15366.233780,	 662.580590,	 2.308704 
0.062103,	 0.000000,	 0.041662,	 1550.913176,	 3.005208,	 1167.479085,	 13993.244225,	 655.683882,	 2.365341 
0.066243,	 0.000000,	 0.037206,	 1581.587457,	 1.958492,	 1131.081814,	 12107.170063,	 645.382171,	 2.450623 
0.070383,	 0.000000,	 0.032824,	 1613.709255,	 0.910569,	 1092.133547,	 10313.427759,	 634.173116,	 2.544588 
0.074524,	 0.000000,	 0.028909,	 1644.523182,	 0.880821,	 1053.982698,	 8765.840142,	 622.998060,	 2.639693 
0.078664,	 0.000000,	 0.025474,	 1673.599875,	 0.515931,	 1017.265465,	 7455.217671,	 612.050284,	 2.734416 
0.082804,	 0.000000,	 0.022563,	 1700.063530,	 0.390919,	 983.237123,	 6382.459631,	 601.726429,	 2.825310 
0.086944,	 0.000000,	 0.020094,	 1724.142031,	 0.326899,	 951.803489,	 5502.419933,	 592.029844,	 2.912255 
0.091084,	 0.000000,	 0.017992,	 1746.086814,	 0.294028,	 922.760714,	 4776.348544,	 582.927444,	 2.995376 
0.095225,	 0.000000,	 0.016191,	 1766.148105,	 0.257863,	 895.875354,	 4173.050897,	 574.372645,	 3.074917 
0.099365,	 0.000000,	 0.014642,	 1784.528355,	 0.227196,	 870.972183,	 3668.956887,	 566.333296,	 3.151021 
0.103505,	 0.000000,	 0.013304,	 1801.410301,	 0.196380,	 847.880104,	 3245.245988,	 558.775268,	 3.223855 
0.107645,	 0.000000,	 0.012141,	 1816.959056,	 0.153209,	 826.421126,	 2886.702090,	 551.658938,	 3.293628 
0.111785,	 0.000000,	 0.011125,	 1831.309694,	 0.092974,	 806.418424,	 2581.098096,	 544.941866,	 3.360560 
0.115926,	 0.000000,	 0.010236,	 1844.560420,	 0.081678,	 787.761068,	 2319.911562,	 538.601068,	 3.424725 
0.120066,	 0.000000,	 0.009466,	 1856.666029,	 0.125788,	 770.611015,	 2098.707262,	 532.705965,	 3.485349 
0.124206,	 0.000000,	 0.008794,	 1867.761022,	 0.156713,	 754.851757,	 1909.858373,	 527.230819,	 3.542587 
0.128346,	 0.000000,	 0.008203,	 1877.983847,	 0.173192,	 740.276802,	 1747.015794,	 522.116026,	 3.596871 
0.132486,	 0.000000,	 0.007681,	 1887.407349,	 0.210350,	 726.771503,	 1605.976747,	 517.331471,	 3.648352 
0.136627,	 0.000000,	 0.007221,	 1896.056162,	 0.332375,	 714.318705,	 1483.919332,	 512.880237,	 3.696879 
0.140767,	 0.000000,	 0.006821,	 1903.867399,	 0.546218,	 703.029810,	 1379.550613,	 508.811389,	 3.741794 
0.144907,	 0.000000,	 0.006479,	 1910.778524,	 0.814359,	 693.017372,	 1291.756157,	 505.175191,	 3.782408 
0.149047,	 0.000000,	 0.006195,	 1916.606984,	 1.146743,	 684.563499,	 1220.058969,	 502.084510,	 3.817300 
0.153187,	 0.000000,	 0.005946,	 1921.056145,	 2.256581,	 678.107755,	 1160.046460,	 499.711460,	 3.844333 
0.157328,	 0.000000,	 0.005734,	 1923.995613,	 0.688321,	 673.850789,	 1111.551713,	 498.140468,	 3.862356 
0.161468,	 0.000000,	 0.005651,	 1924.971465,	 -1.800071,	 672.157763,	 1092.769851,	 497.514294,	 3.869180 
0.165608,	 0.000000,	 0.005744,	 1923.540351,	 -2.972561,	 672.697174,	 1111.683080,	 497.713883,	 3.864756 
0.169748,	 0.000000,	 0.005957,	 1920.386610,	 -2.517244,	 677.429083,	 1160.886514,	 499.461333,	 3.844919 
0.173888,	 0.000000,	 0.006203,	 1915.667576,	 -1.361282,	 685.254147,	 1222.843515,	 502.337720,	 3.813506 
0.178029,	 0.000000,	 0.006361,	 1911.757345,	 -2.364882,	 690.216327,	 1263.066103,	 504.153246,	 3.792019 
0.182169,	 0.000000,	 0.006484,	 1908.786875,	 -3.036273,	 695.056483,	 1296.548438,	 505.917850,	 3.772923 
0.186309,	 0.000000,	 0.006551,	 1907.131723,	 -2.704321,	 698.310752,	 1316.027470,	 507.100826,	 3.760857 
0.190449,	 0.000000,	 0.006566,	 1907.114045,	 -2.298617,	 698.429519,	 1319.425682,	 507.143947,	 3.760501 
0.194589,	 0.000000,	 0.006546,	 1908.307361,	 -1.181757,	 696.708407,	 1312.067893,	 506.518695,	 3.767497 
0.198730,	 0.000000,	 0.006516,	 1909.313484,	 -0.263639,	 695.220649,	 1303.330422,	 505.977593,	 3.773514 
0.202870,	 0.000000,	 0.006485,	 1909.771645,	 0.106150,	 694.521336,	 1295.809003,	 505.723051,	 3.776319 
0.207010,	 0.000000,	 0.006463,	 1910.067011,	 -0.043833,	 694.087629,	 1290.477277,	 505.565122,	 3.778083 
0.211150,	 0.000000,	 0.006465,	 1910.109435,	 -0.170096,	 693.901207,	 1290.591213,	 505.497224,	 3.778674 
0.215290,	 0.000000,	 0.006483,	 1909.952763,	 -0.227072,	 693.977701,	 1294.357757,	 505.525086,	 3.778156 
0.219431,	 0.000000,	 0.006500,	 1909.714591,	 -0.231890,	 694.380497,	 1298.510090,	 505.671772,	 3.776589 
0.223571,	 0.000000,	 0.006508,	 1909.541034,	 -0.292814,	 694.776551,	 1300.927482,	 505.815962,	 3.775170 
0.227711,	 0.000000,	 0.006513,	 1909.435522,	 -0.296904,	 694.991283,	 1302.333082,	 505.894121,	 3.774378 
0.231851,	 0.000000,	 0.006514,	 1909.422282,	 -0.277259,	 695.007913,	 1302.469534,	 505.900173,	 3.774306 
0.235991,	 0.000000,	 0.006512,	 1909.465305,	 -0.224344,	 694.942987,	 1301.906720,	 505.876543,	 3.774568 
0.240132,	 0.000000,	 0.006507,	 1909.555827,	 -0.164059,	 694.809452,	 1300.760236,	 505.827938,	 3.775109 
0.244272,	 0.000000,	 0.006502,	 1909.670977,	 -0.098314,	 694.640290,	 1299.313640,	 505.766358,	 3.775797 
0.248412,	 0.000000,	 0.006496,	 1909.790336,	 -0.042251,	 694.465239,	 1297.819412,	 505.702627,	 3.776509 
0.252552,	 0.000000,	 0.006490,	 1909.908776,	 0.010374,	 694.291557,	 1296.341031,	 505.639386,	 3.777215 
0.256692,	 0.000000,	 0.006484,	 1910.012618,	 0.059490,	 694.139317,	 1294.947264,	 505.583946,	 3.777835 
0.260833,	 0.000000,	 0.006480,	 1910.080559,	 0.109151,	 694.003950,	 1293.706331,	 505.534646,	 3.778338 
0.264973,	 0.000000,	 0.006477,	 1910.095384,	 0.039097,	 693.898509,	 1293.025741,	 505.496241,	 3.778654 
0.269113,	 0.000000,	 0.006479,	 1910.054341,	 -0.039796,	 693.847943,	 1293.268118,	 505.477823,	 3.778710 
0.273253,	 0.000000,	 0.006485,	 1909.958537,	 -0.100414,	 693.911759,	 1294.651357,	 505.501068,	 3.778347 
0.277393,	 0.000000,	 0.006494,	 1909.817836,	 -0.137039,	 694.166607,	 1296.874825,	 505.593885,	 3.777375 
0.281534,	 0.000000,	 0.006501,	 1909.686415,	 -0.170106,	 694.496901,	 1298.857800,	 505.714155,	 3.776217 
0.285674,	 0.000000,	 0.006504,	 1909.617869,	 -0.215963,	 694.687565,	 1299.868121,	 505.783568,	 3.775563 
0.289814,	 0.000000,	 0.006504,	 1909.607734,	 -0.229572,	 694.716600,	 1300.011515,	 505.794138,	 3.775464 
0.293954,	 0.000000,	 0.006503,	 1909.641781,	 -0.188238,	 694.665916,	 1299.577680,	 505.775687,	 3.775669 
0.298094,	 0.000000,	 0.006500,	 1909.700107,	 -0.129065,	 694.580029,	 1298.843028,	 505.744420,	 3.776018 
0.302235,	 0.000000,	 0.006496,	 1909.774713,	 -0.079181,	 694.470548,	 1297.907805,	 505.704560,	 3.776463 
0.306375,	 0.000000,	 0.006492,	 1909.857815,	 -0.039497,	 694.348867,	 1296.869480,	 505.660255,	 3.776959 
0.310515,	 0.000000,	 0.006488,	 1909.946318,	 -0.018186,	 694.219428,	 1295.765871,	 505.613121,	 3.777486 
0.314655,	 0.000000,	 0.006483,	 1910.041493,	 -0.013996,	 694.080395,	 1294.580872,	 505.562488,	 3.778052 
0.318795,	 0.000000,	 0.006478,	 1910.141275,	 -0.010411,	 693.934811,	 1293.340758,	 505.509464,	 3.778646 
0.322936,	 0.000000,	 0.006473,	 1910.242205,	 -0.000859,	 693.787696,	 1292.089079,	 505.455877,	 3.779246 
0.327076,	 0.000000,	 0.006469,	 1910.343382,	 -0.006898,	 693.640255,	 1290.835934,	 505.402165,	 3.779848 
0.331216,	 0.000000,	 0.006464,	 1910.444305,	 0.022390,	 693.493089,	 1289.586578,	 505.348548,	 3.780449 
0.335356,	 0.000000,	 0.006459,	 1910.527244,	 0.083465,	 693.364242,	 1288.337930,	 505.301600,	 3.780964 
0.339496,	 0.000000,	 0.006455,	 1910.556939,	 0.083570,	 693.274524,	 1287.413066,	 505.268908,	 3.781268 
0.343637,	 0.000000,	 0.006454,	 1910.539423,	 -0.010140,	 693.202528,	 1287.174893,	 505.242671,	 3.781429 
0.347777,	 0.000000,	 0.006459,	 1910.472304,	 -0.088982,	 693.210331,	 1288.222727,	 505.245515,	 3.781275 
0.351917,	 0.000000,	 0.006467,	 1910.371214,	 -0.123924,	 693.393490,	 1290.016569,	 505.312258,	 3.780576 
0.356057,	 0.000000,	 0.006471,	 1910.289412,	 -0.165663,	 693.646731,	 1291.358093,	 505.404525,	 3.779724 
0.360197,	 0.000000,	 0.006473,	 1910.242864,	 -0.196678,	 693.781843,	 1292.056933,	 505.453745,	 3.779263 
0.364338,	 0.000000,	 0.006474,	 1910.239274,	 -0.186805,	 693.786664,	 1292.098302,	 505.455501,	 3.779243 
0.368478,	 0.000000,	 0.006472,	 1910.265733,	 -0.133084,	 693.747902,	 1291.768371,	 505.441381,	 3.779401 
0.372618,	 0.000000,	 0.006470,	 1910.309043,	 -0.083969,	 693.684683,	 1291.230480,	 505.418351,	 3.779659 
0.376758,	 0.000000,	 0.006467,	 1910.363516,	 -0.046234,	 693.605326,	 1290.555495,	 505.389440,	 3.779983 
0.380898,	 0.000000,	 0.006464,	 1910.433564,	 -0.054279,	 693.503402,	 1289.688749,	 505.352306,	 3.780399 
0.385039,	 0.000000,	 0.006462,	 1910.532102,	 -0.078495,	 693.360168,	 1288.919603,	 505.300116,	 3.780985 
0.389179,	 0.000000,	 0.006461,	 1910.660099,	 -0.006747,	 693.243226,	 1288.513452,	 505.257502,	 3.781557 
0.393319,	 0.000000,	 0.006456,	 1910.810869,	 0.169553,	 693.093414,	 1287.412506,	 505.202906,	 3.782264 
0.397459,	 0.000000,	 0.006445,	 1911.078884,	 0.329239,	 692.704472,	 1284.307355,	 505.061134,	 3.783857 
0.401599,	 0.000000,	 0.006423,	 1911.543797,	 0.471455,	 692.029716,	 1278.753153,	 504.815086,	 3.786622 
0.405740,	 0.000000,	 0.006390,	 1912.203261,	 0.476904,	 691.037609,	 1270.382451,	 504.453100,	 3.790646 
0.409880,	 0.000000,	 0.006350,	 1913.028617,	 0.021040,	 689.837684,	 1260.326649,	 504.014941,	 3.795579 
0.414020,	 0.000000,	 0.006309,	 1913.920252,	 0.199268,	 688.575428,	 1249.835662,	 503.553610,	 3.800827 
0.000000,	 0.000655,	 0.044552,	 1532.901005,	 -0.004059,	 1188.334648,	 15231.365866,	 661.514447,	 2.317260 
0.004140,	 0.000663,	 0.044551,	 1532.899747,	 0.000605,	 1188.334786,	 15230.845555,	 661.514486,	 2.317258 
0.008280,	 0.000673,	 0.044550,	 1532.900354,	 0.000999,	 1188.333046,	 15230.692716,	 661.514001,	 2.317261 
0.012421,	 0.000685,	 0.044550,	 1532.900827,	 0.000372,	 1188.332297,	 15230.549572,	 661.513793,	 2.317262 
0.016561,	 0.000697,	 0.044550,	 1532.901112,	 -0.000262,	 1188.332423,	 15230.652526,	 661.513828,	 2.317262 
0.020701,	 0.000710,	 0.044550,	 1532.902745,	 -0.000408,	 1188.332481,	 15230.709412,	 661.513844,	 2.317265 
0.024841,	 0.000724,	 0.044551,	 1532.908265,	 -0.002518,	 1188.334613,	 15230.814622,	 661.514438,	 2.317271 
0.028981,	 0.000738,	 0.044554,	 1532.897670,	 -0.001718,	 1188.344201,	 15232.146319,	 661.517106,	 2.317246 
0.033122,	 0.000752,	 0.044546,	 1532.954739,	 0.038519,	 1188.269994,	 15228.308860,	 661.496452,	 2.317404 
0.037262,	 0.000767,	 0.044512,	 1533.164881,	 0.134754,	 1188.019452,	 15213.452722,	 661.426711,	 2.317966 
0.041402,	 0.000782,	 0.044491,	 1533.254567,	 -0.159997,	 1187.953875,	 15205.491326,	 661.408456,	 2.318166 
0.045542,	 0.000797,	 0.044762,	 1531.475604,	 -1.547636,	 1189.996959,	 15324.352395,	 661.976968,	 2.313489 
0.049682,	 0.000812,	 0.045469,	 1526.894705,	 -2.309724,	 1195.261401,	 15635.205101,	 663.439616,	 2.301485 
0.053823,	 0.000828,	 0.045861,	 1524.481698,	 -1.052642,	 1198.097382,	 15807.523944,	 664.226217,	 2.295125 
0.057963,	 0.000843,	 0.044660,	 1531.819252,	 5.939850,	 1189.618590,	 15284.540045,	 661.871719,	 2.314392 
0.062103,	 0.000859,	 0.041426,	 1552.501174,	 14.201798,	 1165.352914,	 13888.618255,	 655.086556,	 2.370017 
0.066243,	 0.000875,	 0.037138,	 1581.972969,	 18.009564,	 1130.208820,	 12075.604834,	 645.133062,	 2.452324 
0.070383,	 0.000891,	 0.032781,	 1613.898033,	 19.073324,	 1091.421040,	 10292.987723,	 633.966215,	 2.545894 
0.074524,	 0.000907,	 0.028858,	 1644.770462,	 20.111179,	 1053.161015,	 8743.681128,	 622.755169,	 2.641316 
0.078664,	 0.000923,	 0.025447,	 1673.628968,	 20.316986,	 1016.681728,	 7443.187901,	 611.874653,	 2.735450 
0.082804,	 0.000939,	 0.022543,	 1700.029640,	 20.228579,	 982.725425,	 6373.407390,	 601.569833,	 2.826189 
0.086944,	 0.000955,	 0.020077,	 1724.116732,	 20.034512,	 951.331633,	 5494.949958,	 591.883077,	 2.913131 
0.091084,	 0.000971,	 0.017978,	 1746.077251,	 19.801182,	 922.335005,	 4770.380243,	 582.792963,	 2.996243 
0.095225,	 0.000987,	 0.016180,	 1766.152584,	 19.516525,	 895.505495,	 4168.554264,	 574.254069,	 3.075747 
0.099365,	 0.001002,	 0.014634,	 1784.546578,	 19.188260,	 870.651910,	 3665.584125,	 566.229161,	 3.151815 
0.103505,	 0.001018,	 0.013298,	 1801.439969,	 18.839348,	 847.596447,	 3242.611406,	 558.681792,	 3.224624 
0.107645,	 0.001034,	 0.012136,	 1816.998089,	 18.474346,	 826.166081,	 2884.585196,	 551.573806,	 3.294377 
0.111785,	 0.001049,	 0.011122,	 1831.363056,	 18.089468,	 806.208445,	 2579.693212,	 544.870914,	 3.361259 
0.115926,	 0.001065,	 0.010236,	 1844.623440,	 17.605662,	 787.664321,	 2319.504824,	 538.567994,	 3.425208 
0.120066,	 0.001080,	 0.009466,	 1856.742904,	 17.044232,	 770.620221,	 2098.706960,	 532.709147,	 3.485619 
0.124206,	 0.001096,	 0.008794,	 1867.848973,	 16.482359,	 754.888903,	 1909.851650,	 527.243791,	 3.542805 
0.128346,	 0.001111,	 0.008202,	 1878.080193,	 15.958671,	 740.300995,	 1746.935842,	 522.124557,	 3.597126 
0.132486,	 0.001125,	 0.007681,	 1887.501311,	 15.443447,	 726.799970,	 1605.995533,	 517.341602,	 3.648584 
0.136627,	 0.001140,	 0.007221,	 1896.148456,	 14.930730,	 714.352838,	 1484.048143,	 512.892491,	 3.697085 
0.140767,	 0.001155,	 0.006817,	 1903.974645,	 14.317720,	 703.043246,	 1378.806821,	 508.816251,	 3.742075 
0.144907,	 0.001169,	 0.006463,	 1910.910369,	 13.240561,	 692.988052,	 1288.527293,	 505.164504,	 3.782839 
0.149047,	 0.001183,	 0.006167,	 1916.780662,	 11.491524,	 684.456719,	 1214.410808,	 502.045350,	 3.818012 
0.153187,	 0.001197,	 0.005948,	 1921.430473,	 9.655059,	 677.691006,	 1159.711606,	 499.557881,	 3.846311 
0.157328,	 0.001211,	 0.005816,	 1924.668695,	 5.512380,	 672.984149,	 1125.959417,	 497.820035,	 3.866210 
0.161468,	 0.001224,	 0.005770,	 1925.686706,	 -0.956397,	 671.437730,	 1114.535320,	 497.247747,	 3.872691 
0.165608,	 0.001237,	 0.005829,	 1924.067923,	 -7.060042,	 674.194120,	 1130.532114,	 498.267354,	 3.861543 
0.169748,	 0.001250,	 0.005988,	 1920.513708,	 -10.669732,	 679.196385,	 1170.023168,	 500.112416,	 3.840223 
0.173888,	 0.001263,	 0.006203,	 1916.016780,	 -10.456663,	 685.616316,	 1223.550252,	 502.470449,	 3.813250 
0.178029,	 0.001275,	 0.006382,	 1912.315792,	 -8.640665,	 691.606638,	 1269.738079,	 504.660752,	 3.789348 
0.182169,	 0.001287,	 0.006516,	 1909.619737,	 -6.466066,	 695.267715,	 1303.396226,	 505.994720,	 3.774013 
0.186309,	 0.001299,	 0.006592,	 1908.231782,	 -3.524109,	 696.862697,	 1321.510282,	 506.574777,	 3.766937 
0.190449,	 0.001310,	 0.006599,	 1908.042321,	 -0.703676,	 697.095757,	 1323.411418,	 506.659480,	 3.765927 
0.194589,	 0.001321,	 0.006562,	 1908.598013,	 1.138591,	 696.285529,	 1314.577347,	 506.364952,	 3.769215 
0.198730,	 0.001332,	 0.006521,	 1909.356995,	 1.556263,	 695.142641,	 1304.215182,	 505.949206,	 3.773813 
0.202870,	 0.001343,	 0.006494,	 1909.918407,	 1.229161,	 694.284927,	 1297.121844,	 505.636972,	 3.777253 
0.207010,	 0.001353,	 0.006478,	 1910.243042,	 0.446137,	 693.810986,	 1292.944279,	 505.464361,	 3.779185 
0.211150,	 0.001362,	 0.006476,	 1910.268673,	 -0.371216,	 693.840934,	 1292.699439,	 505.475270,	 3.779154 
0.215290,	 0.001371,	 0.006486,	 1910.069730,	 -0.805814,	 694.203611,	 1295.454645,	 505.607361,	 3.777773 
0.219431,	 0.001380,	 0.006501,	 1909.804267,	 -0.759109,	 694.604705,	 1299.083659,	 505.753403,	 3.776157 
0.223571,	 0.001389,	 0.006511,	 1909.592805,	 -0.600220,	 694.885338,	 1301.618804,	 505.855560,	 3.774977 
0.227711,	 0.001397,	 0.006516,	 1909.475153,	 -0.383788,	 695.025352,	 1302.854114,	 505.906520,	 3.774364 
0.231851,	 0.001405,	 0.006516,	 1909.465982,	 -0.163195,	 695.039841,	 1303.021486,	 505.911793,	 3.774306 
0.235991,	 0.001412,	 0.006514,	 1909.532249,	 0.013863,	 694.944652,	 1302.336844,	 505.877149,	 3.774696 
0.240132,	 0.001419,	 0.006509,	 1909.637145,	 0.151779,	 694.776642,	 1301.079305,	 505.815995,	 3.775359 
0.244272,	 0.001426,	 0.006503,	 1909.756974,	 0.244222,	 694.568617,	 1299.516635,	 505.740265,	 3.776162 
0.248412,	 0.001433,	 0.006497,	 1909.878199,	 0.283595,	 694.359383,	 1297.894983,	 505.664084,	 3.776970 
0.252552,	 0.001439,	 0.006490,	 1909.999542,	 0.297927,	 694.167151,	 1296.196797,	 505.594083,	 3.777733 
0.256692,	 0.001446,	 0.006484,	 1910.109444,	 0.269078,	 694.006575,	 1294.648358,	 505.535602,	 3.778388 
0.260833,	 0.001451,	 0.006480,	 1910.185508,	 0.179551,	 693.913603,	 1293.675059,	 505.501739,	 3.778791 
0.264973,	 0.001457,	 0.006479,	 1910.208925,	 -0.001536,	 693.919348,	 1293.467918,	 505.503832,	 3.778822 
0.269113,	 0.001462,	 0.006481,	 1910.168901,	 -0.197113,	 694.027763,	 1294.080362,	 505.543319,	 3.778448 
0.273253,	 0.001467,	 0.006486,	 1910.065678,	 -0.384751,	 694.209325,	 1295.464011,	 505.609441,	 3.777749 
0.277393,	 0.001472,	 0.006494,	 1909.913882,	 -0.488633,	 694.422744,	 1297.474103,	 505.687154,	 3.776869 
0.281534,	 0.001477,	 0.006502,	 1909.763660,	 -0.443416,	 694.621302,	 1299.360782,	 505.759446,	 3.776032 
0.285674,	 0.001482,	 0.006506,	 1909.673242,	 -0.308599,	 694.736015,	 1300.330984,	 505.801206,	 3.775541 
0.289814,	 0.001485,	 0.006506,	 1909.658380,	 -0.143498,	 694.750157,	 1300.481546,	 505.806354,	 3.775473 
0.293954,	 0.001489,	 0.006505,	 1909.706501,	 0.007794,	 694.677001,	 1299.983520,	 505.779723,	 3.775767 
0.298094,	 0.001493,	 0.006501,	 1909.777908,	 0.107150,	 694.557611,	 1299.125117,	 505.736258,	 3.776233 
0.302235,	 0.001497,	 0.006498,	 1909.857308,	 0.167465,	 694.420502,	 1298.091987,	 505.686338,	 3.776763 
0.306375,	 0.001500,	 0.006493,	 1909.943618,	 0.202151,	 694.280142,	 1296.987110,	 505.635229,	 3.777315 
0.310515,	 0.001504,	 0.006489,	 1910.033776,	 0.219917,	 694.141551,	 1295.849614,	 505.584760,	 3.777871 
0.314655,	 0.001507,	 0.006484,	 1910.129367,	 0.234566,	 693.997931,	 1294.646028,	 505.532454,	 3.778451 
0.318795,	 0.001510,	 0.006479,	 1910.229038,	 0.245933,	 693.847700,	 1293.372919,	 505.477734,	 3.779057 
0.322936,	 0.001512,	 0.006474,	 1910.330314,	 0.248679,	 693.696496,	 1292.081089,	 505.422654,	 3.779669 
0.327076,	 0.001514,	 0.006469,	 1910.430945,	 0.245410,	 693.542968,	 1290.771023,	 505.366721,	 3.780286 
0.331216,	 0.001517,	 0.006463,	 1910.531298,	 0.258583,	 693.388525,	 1289.353184,	 505.310449,	 3.780906 
0.335356,	 0.001519,	 0.006458,	 1910.618672,	 0.212495,	 693.259572,	 1288.117044,	 505.263459,	 3.781431 
0.339496,	 0.001521,	 0.006456,	 1910.662751,	 0.075512,	 693.215524,	 1287.630266,	 505.247407,	 3.781638 
0.343637,	 0.001523,	 0.006457,	 1910.653773,	 -0.119384,	 693.280190,	 1287.946147,	 505.270972,	 3.781444 
0.347777,	 0.001525,	 0.006461,	 1910.581314,	 -0.324081,	 693.432215,	 1288.990918,	 505.326368,	 3.780886 
0.351917,	 0.001527,	 0.006467,	 1910.466623,	 -0.398224,	 693.608624,	 1290.528008,	 505.390642,	 3.780178 
0.356057,	 0.001528,	 0.006473,	 1910.362950,	 -0.335441,	 693.737787,	 1291.874976,	 505.437696,	 3.779621 
0.360197,	 0.001529,	 0.006476,	 1910.303618,	 -0.204943,	 693.807585,	 1292.586930,	 505.463122,	 3.779314 
0.364338,	 0.001530,	 0.006476,	 1910.304006,	 -0.061608,	 693.807068,	 1292.590894,	 505.462934,	 3.779316 
0.368478,	 0.001531,	 0.006474,	 1910.341344,	 0.035387,	 693.740289,	 1292.092470,	 505.438607,	 3.779571 
0.372618,	 0.001532,	 0.006471,	 1910.389777,	 0.092301,	 693.650574,	 1291.431884,	 505.405925,	 3.779912 
0.376758,	 0.001533,	 0.006469,	 1910.448774,	 0.128960,	 693.559981,	 1290.693377,	 505.372920,	 3.780275 
0.380898,	 0.001534,	 0.006465,	 1910.521143,	 0.140411,	 693.471004,	 1289.912116,	 505.340501,	 3.780661 
0.385039,	 0.001535,	 0.006461,	 1910.590112,	 0.164926,	 693.388245,	 1288.946578,	 505.310347,	 3.781023 
0.389179,	 0.001535,	 0.006455,	 1910.664966,	 0.297947,	 693.248126,	 1287.422351,	 505.259288,	 3.781553 
0.393319,	 0.001535,	 0.006445,	 1910.822568,	 0.627002,	 692.984786,	 1285.016698,	 505.163314,	 3.782584 
0.397459,	 0.001536,	 0.006430,	 1911.121437,	 1.076735,	 692.550684,	 1281.201593,	 505.005066,	 3.784362 
0.401599,	 0.001536,	 0.006409,	 1911.565626,	 1.580901,	 691.905102,	 1275.804632,	 504.769633,	 3.787007 
0.405740,	 0.001536,	 0.006381,	 1912.181069,	 2.039458,	 691.027841,	 1268.595536,	 504.449535,	 3.790631 
0.409880,	 0.001537,	 0.006345,	 1912.970616,	 2.163220,	 689.917573,	 1259.366604,	 504.044125,	 3.795247 
0.414020,	 0.001537,	 0.006304,	 1913.847440,	 2.420697,	 688.663325,	 1248.942293,	 503.585749,	 3.800443 
0.000000,	 0.001311,	 0.044553,	 1532.900979,	 -0.002211,	 1188.331410,	 15231.483413,	 661.513546,	 2.317263 
0.004140,	 0.001325,	 0.044551,	 1532.900349,	 0.000255,	 1188.332688,	 15230.768542,	 661.513902,	 2.317261 
0.008280,	 0.001347,	 0.044550,	 1532.900522,	 0.000754,	 1188.333202,	 15230.690303,	 661.514045,	 2.317261 
0.012421,	 0.001370,	 0.044550,	 1532.900886,	 0.000429,	 1188.332505,	 15230.559047,	 661.513851,	 2.317262 
0.016561,	 0.001395,	 0.044550,	 1532.902237,	 -0.000319,	 1188.332251,	 15230.654114,	 661.513780,	 2.317264 
0.020701,	 0.001421,	 0.044550,	 1532.905586,	 -0.000386,	 1188.333033,	 15230.713254,	 661.513998,	 2.317269 
0.024841,	 0.001447,	 0.044551,	 1532.913326,	 -0.005508,	 1188.334335,	 15230.871531,	 661.514360,	 2.317279 
0.028981,	 0.001475,	 0.044554,	 1532.902331,	 0.004220,	 1188.338261,	 15231.834276,	 661.515453,	 2.317259 
0.033122,	 0.001504,	 0.044543,	 1532.970188,	 0.080989,	 1188.255519,	 15227.322733,	 661.492422,	 2.317442 
0.037262,	 0.001533,	 0.044513,	 1533.141605,	 0.193144,	 1188.040104,	 15214.081582,	 661.432460,	 2.317911 
0.041402,	 0.001563,	 0.044518,	 1533.028028,	 -0.391773,	 1188.168274,	 15217.355593,	 661.468138,	 2.317614 
0.045542,	 0.001593,	 0.044821,	 1531.063149,	 -2.819802,	 1190.454264,	 15350.609935,	 662.104152,	 2.312424 
0.049682,	 0.001624,	 0.045478,	 1526.963452,	 -3.954790,	 1195.218156,	 15637.743704,	 663.427614,	 2.301636 
0.053823,	 0.001655,	 0.045655,	 1525.651972,	 0.384006,	 1196.773139,	 15719.195063,	 663.859035,	 2.298157 
0.057963,	 0.001686,	 0.044299,	 1533.839132,	 12.447821,	 1187.237004,	 15130.929604,	 661.208862,	 2.319826 
0.062103,	 0.001718,	 0.041140,	 1554.015597,	 25.719502,	 1163.399823,	 13769.809920,	 654.537375,	 2.374545 
0.066243,	 0.001749,	 0.036993,	 1582.446640,	 34.397494,	 1129.332049,	 12019.048564,	 644.882780,	 2.454431 
0.070383,	 0.001781,	 0.032720,	 1613.989357,	 38.133952,	 1090.923997,	 10269.288001,	 633.821842,	 2.547151 
0.074524,	 0.001813,	 0.028808,	 1644.816315,	 39.793700,	 1052.650867,	 8724.162116,	 622.604320,	 2.642606 
0.078664,	 0.001845,	 0.025420,	 1673.483794,	 40.390045,	 1016.371926,	 7432.813939,	 611.781421,	 2.736224 
0.082804,	 0.001877,	 0.022523,	 1699.837400,	 40.325544,	 982.470457,	 6366.171306,	 601.491790,	 2.826831 
0.086944,	 0.001909,	 0.020061,	 1723.879397,	 39.949850,	 951.092518,	 5489.209852,	 591.808688,	 2.913682 
0.091084,	 0.001941,	 0.017965,	 1745.805952,	 39.477217,	 922.113099,	 4765.854995,	 582.722851,	 2.996711 
0.095225,	 0.001973,	 0.016171,	 1765.845764,	 38.916265,	 895.314822,	 4165.271042,	 574.192930,	 3.076099 
0.099365,	 0.002005,	 0.014627,	 1784.211140,	 38.274936,	 870.487400,	 3663.195809,	 566.175664,	 3.152063 
0.103505,	 0.002036,	 0.013293,	 1801.083955,	 37.594333,	 847.448771,	 3240.793257,	 558.633120,	 3.224793 
0.107645,	 0.002068,	 0.012133,	 1816.622319,	 36.882981,	 826.036922,	 2883.243330,	 551.530689,	 3.294462 
0.111785,	 0.002099,	 0.011121,	 1830.957071,	 36.120556,	 806.160324,	 2579.202633,	 544.854652,	 3.361104 
0.115926,	 0.002130,	 0.010239,	 1844.153866,	 35.170632,	 787.755336,	 2320.376409,	 538.599109,	 3.424605 
0.120066,	 0.002161,	 0.009471,	 1856.238800,	 34.064980,	 770.761646,	 2100.116810,	 532.758026,	 3.484793 
0.124206,	 0.002191,	 0.008799,	 1867.339101,	 32.959732,	 755.045310,	 1911.346061,	 527.298409,	 3.541884 
0.128346,	 0.002221,	 0.008208,	 1877.560181,	 31.940681,	 740.496241,	 1748.621051,	 522.193405,	 3.596047 
0.132486,	 0.002251,	 0.007686,	 1886.935006,	 30.917929,	 727.091175,	 1607.668835,	 517.445233,	 3.647127 
0.136627,	 0.002280,	 0.007222,	 1895.485403,	 29.617961,	 714.822954,	 1485.202941,	 513.061231,	 3.694913 
0.140767,	 0.002309,	 0.006820,	 1903.161127,	 27.833297,	 703.782688,	 1380.829822,	 509.083760,	 3.738804 
0.144907,	 0.002338,	 0.006483,	 1909.897987,	 25.180465,	 694.069068,	 1294.485439,	 505.558363,	 3.778128 
0.149047,	 0.002366,	 0.006212,	 1915.566461,	 21.189880,	 685.872717,	 1225.803768,	 502.564395,	 3.811817 
0.153187,	 0.002394,	 0.006016,	 1919.922428,	 15.619438,	 679.565275,	 1176.123894,	 500.248210,	 3.838067 
0.157328,	 0.002422,	 0.005905,	 1922.637150,	 8.390965,	 675.645567,	 1147.728104,	 498.803417,	 3.854535 
0.161468,	 0.002448,	 0.005874,	 1923.514319,	 -0.548799,	 674.597891,	 1139.994293,	 498.416537,	 3.859251 
0.165608,	 0.002475,	 0.005915,	 1922.305347,	 -9.926857,	 676.520742,	 1151.200861,	 499.126366,	 3.851391 
0.169748,	 0.002501,	 0.006024,	 1919.514863,	 -16.444783,	 680.525961,	 1179.388760,	 500.601679,	 3.834556 
0.173888,	 0.002526,	 0.006182,	 1916.295674,	 -17.872829,	 685.049059,	 1218.301520,	 502.262542,	 3.815493 
0.178029,	 0.002550,	 0.006339,	 1913.156165,	 -14.822430,	 689.451763,	 1257.405723,	 503.873939,	 3.797008 
0.182169,	 0.002575,	 0.006455,	 1910.683331,	 -9.760239,	 693.063280,	 1286.978008,	 505.191923,	 3.782143 
0.186309,	 0.002598,	 0.006520,	 1909.286898,	 -4.452267,	 695.109717,	 1303.897268,	 505.937224,	 3.773773 
0.190449,	 0.002621,	 0.006545,	 1908.749627,	 -0.215424,	 695.886080,	 1310.409516,	 506.219684,	 3.770595 
0.194589,	 0.002643,	 0.006542,	 1908.783591,	 1.945434,	 695.827918,	 1309.546190,	 506.198528,	 3.770822 
0.198730,	 0.002664,	 0.006523,	 1909.232125,	 2.418102,	 695.214816,	 1304.755275,	 505.975471,	 3.773372 
0.202870,	 0.002685,	 0.006506,	 1909.682237,	 1.849062,	 694.581588,	 1300.128948,	 505.744987,	 3.775980 
0.207010,	 0.002705,	 0.006494,	 1909.895624,	 0.764189,	 694.271599,	 1297.117704,	 505.632119,	 3.777244 
0.211150,	 0.002724,	 0.006489,	 1909.977312,	 -0.341691,	 694.175972,	 1295.852211,	 505.597296,	 3.777665 
0.215290,	 0.002743,	 0.006490,	 1909.927530,	 -1.039864,	 694.250615,	 1296.276315,	 505.624478,	 3.777364 
0.219431,	 0.002760,	 0.006498,	 1909.744871,	 -1.168502,	 694.470335,	 1298.262118,	 505.704482,	 3.776406 
0.223571,	 0.002777,	 0.006507,	 1909.525622,	 -0.890591,	 694.741453,	 1300.549287,	 505.803185,	 3.775235 
0.227711,	 0.002794,	 0.006511,	 1909.420947,	 -0.509381,	 694.892305,	 1301.577173,	 505.858096,	 3.774618 
0.231851,	 0.002809,	 0.006512,	 1909.387772,	 -0.158910,	 694.935757,	 1301.869506,	 505.873911,	 3.774434 
0.235991,	 0.002824,	 0.006510,	 1909.423231,	 0.150852,	 694.880057,	 1301.423385,	 505.853637,	 3.774656 
0.240132,	 0.002839,	 0.006506,	 1909.515935,	 0.387004,	 694.758265,	 1300.476948,	 505.809305,	 3.775170 
0.244272,	 0.002852,	 0.006502,	 1909.641690,	 0.528655,	 694.606450,	 1299.275337,	 505.754039,	 3.775831 
0.248412,	 0.002866,	 0.006496,	 1909.773539,	 0.577445,	 694.444546,	 1297.882738,	 505.695093,	 3.776532 
0.252552,	 0.002879,	 0.006490,	 1909.907785,	 0.531710,	 694.261680,	 1296.374633,	 505.628507,	 3.777295 
0.256692,	 0.002892,	 0.006486,	 1910.023846,	 0.387855,	 694.095576,	 1295.145234,	 505.568017,	 3.777976 
0.260833,	 0.002902,	 0.006483,	 1910.095145,	 0.165813,	 694.004579,	 1294.463383,	 505.534875,	 3.778365 
0.264973,	 0.002913,	 0.006483,	 1910.111600,	 -0.099080,	 693.989705,	 1294.389916,	 505.529458,	 3.778438 
0.269113,	 0.002924,	 0.006485,	 1910.065025,	 -0.388646,	 694.046160,	 1294.945578,	 505.550020,	 3.778192 
0.273253,	 0.002935,	 0.006490,	 1909.954647,	 -0.630193,	 694.192783,	 1296.061016,	 505.603418,	 3.777575 
0.277393,	 0.002945,	 0.006495,	 1909.798920,	 -0.731967,	 694.388732,	 1297.494983,	 505.674770,	 3.776734 
0.281534,	 0.002955,	 0.006500,	 1909.658753,	 -0.619581,	 694.538464,	 1298.710800,	 505.729287,	 3.776050 
0.285674,	 0.002964,	 0.006502,	 1909.588685,	 -0.369279,	 694.615014,	 1299.362674,	 505.757156,	 3.775703 
0.289814,	 0.002971,	 0.006503,	 1909.574237,	 -0.104166,	 694.633797,	 1299.528948,	 505.763994,	 3.775623 
0.293954,	 0.002978,	 0.006502,	 1909.595593,	 0.114453,	 694.604310,	 1299.275868,	 505.753259,	 3.775746 