TITLE = "Final State"
VARIABLES = "X", "Y", "rho", "u", "v", "T", "p", "c", "M"
ZONE I=201, J=75, DATAPACKING=POINT
0.0000000000000000e+00,	 0.0000000000000000e+00,	 4.4554654835750322e-02,	 1.5326728412140037e+03,	 -4.4023236035320790e-01,	 1.1886809671504184e+03,	 1.5236609248607310e+04,	 6.6161083366375999e+02,	 2.3165777016542815e+00 
3.1028124417654200e-02,	 0.0000000000000000e+00,	 4.4283269392829630e-02,	 1.5345874275160254e+03,	 -1.7850092499362380e-01,	 1.1857802101256052e+03,	 1.5106846361600503e+04,	 6.6080307085609752e+02,	 2.3223067591217235e+00 
6.2056248835308400e-02,	 0.0000000000000000e+00,	 4.3944702770034275e-02,	 1.5370150791103413e+03,	 -4.4977979080658204e-02,	 1.1820619319991561e+03,	 1.4944338636786775e+04,	 6.5976620973892091e+02,	 2.3296359484318852e+00 
9.3084373252962593e-02,	 0.0000000000000000e+00,	 4.3592649482257252e-02,	 1.5395776975013171e+03,	 1.4232374736708131e-02,	 1.1781325338763886e+03,	 1.4775335531966552e+04,	 6.5866870287340430e+02,	 2.3374083068631961e+00 
1.2411249767061680e-01,	 0.0000000000000000e+00,	 4.3239408559529124e-02,	 1.5421209169352921e+03,	 7.4978346852189182e-03,	 1.1742507405918984e+03,	 1.4607319386895771e+04,	 6.5758269376810949e+02,	 2.3451361046574837e+00 
1.5514062208827101e-01,	 0.0000000000000000e+00,	 4.2890878833727122e-02,	 1.5446060946703744e+03,	 -2.3771951957829440e-04,	 1.1704437742006889e+03,	 1.4442601832881077e+04,	 6.5651587411458718e+02,	 2.3527322880859995e+00 
1.8616874650592519e-01,	 0.0000000000000000e+00,	 4.2549102641678008e-02,	 1.5470404355543224e+03,	 -1.0907460280008552e-03,	 1.1667020015485575e+03,	 1.4281712482383657e+04,	 6.5546563161047243e+02,	 2.3602159456532359e+00 
2.1719687092357939e-01,	 0.0000000000000000e+00,	 4.2213543405602301e-02,	 1.5494472850087016e+03,	 1.5803050972473809e-04,	 1.1630100317123197e+03,	 1.4124243842243784e+04,	 6.5442771583060153e+02,	 2.3676370170877417e+00 
2.4822499534123360e-01,	 0.0000000000000000e+00,	 4.1881435653670869e-02,	 1.5518249790406453e+03,	 -6.5219419633855136e-04,	 1.1593400092877941e+03,	 1.3968903646151324e+04,	 6.5339433602791246e+02,	 2.3750205556947002e+00 
2.7925311975888778e-01,	 0.0000000000000000e+00,	 4.1554333258919739e-02,	 1.5541832875379066e+03,	 4.2039042394748094e-05,	 1.1557084525145904e+03,	 1.3816388784011855e+04,	 6.5237017585313527e+02,	 2.3823641010342458e+00 
3.1028124417654201e-01,	 0.0000000000000000e+00,	 4.1232006923208664e-02,	 1.5565133615383406e+03,	 1.9672426101881024e-03,	 1.1521138422133163e+03,	 1.3666578684931552e+04,	 6.5135484935709110e+02,	 2.3896549831108409e+00 
3.4130936859419619e-01,	 0.0000000000000000e+00,	 4.0913458597041548e-02,	 1.5588121620544948e+03,	 2.9749099932019352e-04,	 1.1485466334764783e+03,	 1.3519006117016866e+04,	 6.5034569559525005e+02,	 2.3968977923775903e+00 
3.7233749301185037e-01,	 0.0000000000000000e+00,	 4.0599281589869418e-02,	 1.5610947826108352e+03,	 -4.0999808063890697e-04,	 1.1450099970733859e+03,	 1.3373884392662445e+04,	 6.4934364243103460e+02,	 2.4041119071658419e+00 
4.0336561742950461e-01,	 0.0000000000000000e+00,	 4.0289791011669809e-02,	 1.5633571488938060e+03,	 9.2312202469435611e-04,	 1.1415095436896142e+03,	 1.3231360396036005e+04,	 6.4835031615740843e+02,	 2.4112846248917719e+00 
4.3439374184715879e-01,	 0.0000000000000000e+00,	 3.9984012247236578e-02,	 1.5655886686876086e+03,	 4.4801501517233167e-04,	 1.1380366264944018e+03,	 1.3090991740955578e+04,	 6.4736329760973524e+02,	 2.4184081403260094e+00 
4.6542186626481302e-01,	 0.0000000000000000e+00,	 3.9682307552679735e-02,	 1.5677999241606551e+03,	 5.0723897164761667e-05,	 1.1345948399980507e+03,	 1.2952919316261092e+04,	 6.4638363958840876e+02,	 2.4254944403589302e+00 
4.9644999068246720e-01,	 0.0000000000000000e+00,	 3.9384864533982281e-02,	 1.5699910441544766e+03,	 8.5788286715005047e-04,	 1.1311843971459007e+03,	 1.2817186379729972e+04,	 6.4541143635997048e+02,	 2.4325429574183546e+00 
5.2747811510012144e-01,	 0.0000000000000000e+00,	 3.9091094196167825e-02,	 1.5721574706354304e+03,	 6.4327789344698072e-04,	 1.1278012694737827e+03,	 1.2683535929020192e+04,	 6.4444557069623579e+02,	 2.4395504323771822e+00 
5.5850623951777556e-01,	 0.0000000000000000e+00,	 3.8801062928316823e-02,	 1.5743025832335945e+03,	 5.5567955028634763e-04,	 1.1244477359917273e+03,	 1.2551997231269544e+04,	 6.4348672323892413e+02,	 2.4465191376592865e+00 
5.8953436393542979e-01,	 0.0000000000000000e+00,	 3.8514927190240147e-02,	 1.5764292400308482e+03,	 1.0059216334186161e-03,	 1.1211239123908194e+03,	 1.2422603802658703e+04,	 6.4253495855985534e+02,	 2.4534528729214924e+00 
6.2056248835308403e-01,	 0.0000000000000000e+00,	 3.8232363159836275e-02,	 1.5785354451343460e+03,	 3.0979062671865343e-04,	 1.1178252860519265e+03,	 1.2295183356994179e+04,	 6.4158901314559785e+02,	 2.4603529873354524e+00 
6.5159061277073815e-01,	 0.0000000000000000e+00,	 3.7953367348309015e-02,	 1.5806203565934150e+03,	 2.7981623283424018e-04,	 1.1145548944432919e+03,	 1.2169751627940876e+04,	 6.4064978574724717e+02,	 2.4672143685333801e+00 
6.8261873718839239e-01,	 0.0000000000000000e+00,	 3.7677991266561073e-02,	 1.5826834904735611e+03,	 1.1521118050100698e-03,	 1.1113144739303825e+03,	 1.2046327035631810e+04,	 6.3971780571628551e+02,	 2.4740338260584536e+00 
7.1364686160604662e-01,	 0.0000000000000000e+00,	 3.7405962162093444e-02,	 1.5847260626940790e+03,	 7.8660595382895604e-04,	 1.1080983046403840e+03,	 1.1924743827284519e+04,	 6.3879145609282330e+02,	 2.4808191273992186e+00 
7.4467498602370075e-01,	 0.0000000000000000e+00,	 3.7137301410702706e-02,	 1.5867514154804160e+03,	 3.5350910911013944e-04,	 1.1049064272189612e+03,	 1.1804994247625726e+04,	 6.3787077313971076e+02,	 2.4875750423086314e+00 
7.7570311044135498e-01,	 0.0000000000000000e+00,	 3.6872052109538887e-02,	 1.5887590863584278e+03,	 7.4259201276383191e-04,	 1.1017429219224032e+03,	 1.1687120327600804e+04,	 6.3695696090157594e+02,	 2.4942958219811340e+00 
8.0673123485900922e-01,	 0.0000000000000000e+00,	 3.6609979987860149e-02,	 1.5907473372340510e+03,	 8.5041833978116710e-04,	 1.0986056251375885e+03,	 1.1571009425171211e+04,	 6.3604942266874286e+02,	 2.5009807108381672e+00 
8.3775935927666345e-01,	 0.0000000000000000e+00,	 3.6351080643607661e-02,	 1.5927174435477168e+03,	 4.9412374681923055e-04,	 1.0954907885126236e+03,	 1.1456606421757930e+04,	 6.3514709872054732e+02,	 2.5076355489243269e+00 
8.6878748369431757e-01,	 0.0000000000000000e+00,	 3.6095447986888921e-02,	 1.5946704112002271e+03,	 7.3380150868029848e-04,	 1.0924009188614332e+03,	 1.1343953314562990e+04,	 6.3425073904317060e+02,	 2.5142586567673733e+00 
8.9981560811197181e-01,	 0.0000000000000000e+00,	 3.5842772031145796e-02,	 1.5966033529253937e+03,	 8.7569232660555940e-04,	 1.0893364430808376e+03,	 1.1232943137331118e+04,	 6.3336049306220696e+02,	 2.5208445591645385e+00 
9.3084373252962604e-01,	 0.0000000000000000e+00,	 3.5593034085469738e-02,	 1.5985183795794364e+03,	 6.3919711165627557e-04,	 1.0862956277174308e+03,	 1.1123538940379305e+04,	 6.3247588195810317e+02,	 2.5273981588525682e+00 
9.6187185694728017e-01,	 0.0000000000000000e+00,	 3.5346473219470445e-02,	 1.6004194252941629e+03,	 7.9332330357539949e-04,	 1.0832783613934475e+03,	 1.1015801287086297e+04,	 6.3159689693842734e+02,	 2.5339254088361680e+00 
9.9289998136493440e-01,	 0.0000000000000000e+00,	 3.5102786349912062e-02,	 1.6023028065905678e+03,	 8.8503257486094444e-04,	 1.0802833874958772e+03,	 1.0909610006790579e+04,	 6.3072319468845103e+02,	 2.5404215669954517e+00 
1.0239281057825886e+00,	 0.0000000000000000e+00,	 3.4861787991378644e-02,	 1.6041677806740263e+03,	 7.1086745454385092e-04,	 1.0773116944821275e+03,	 1.0804905407197450e+04,	 6.2985508614521746e+02,	 2.5468839038704401e+00 
1.0549562302002429e+00,	 0.0000000000000000e+00,	 3.4623704477119099e-02,	 1.6060181251250137e+03,	 8.3006981221900311e-04,	 1.0743638828688540e+03,	 1.0701751688818340e+04,	 6.2899277025736910e+02,	 2.5533173051704288e+00 
1.0859843546178971e+00,	 0.0000000000000000e+00,	 3.4388442923208133e-02,	 1.6078526139877742e+03,	 9.0086992221827256e-04,	 1.0714363940524136e+03,	 1.0600072690881831e+04,	 6.2813522775747037e+02,	 2.5597236756299799e+00 
1.1170124790355511e+00,	 0.0000000000000000e+00,	 3.4155828364438867e-02,	 1.6096712191581973e+03,	 7.7779172034386779e-04,	 1.0685305367095334e+03,	 1.0499816230463986e+04,	 6.2728286235295207e+02,	 2.5661010618407021e+00 
1.1480406034532054e+00,	 0.0000000000000000e+00,	 3.3925839981299014e-02,	 1.6114744146780049e+03,	 8.3480288922943569e-04,	 1.0656484624610428e+03,	 1.0400985943592457e+04,	 6.2643632758690126e+02,	 2.5724472603397546e+00 
1.1790687278708596e+00,	 0.0000000000000000e+00,	 3.3698472656970735e-02,	 1.6132610489643475e+03,	 9.1319559706903863e-04,	 1.0627866343762264e+03,	 1.0303534722404269e+04,	 6.2559460614705449e+02,	 2.5787643197572376e+00 
1.2100968522885138e+00,	 0.0000000000000000e+00,	 3.3473737821986760e-02,	 1.6150325509565250e+03,	 9.0316833214620917e-04,	 1.0599441070431999e+03,	 1.0207446501022485e+04,	 6.2475743886347141e+02,	 2.5850553358672559e+00 
1.2411249767061681e+00,	 0.0000000000000000e+00,	 3.3251493418962469e-02,	 1.6167893585283205e+03,	 9.6553506404006839e-04,	 1.0571232348795445e+03,	 1.0112690396895827e+04,	 6.2392553886983887e+02,	 2.5913178060593824e+00 
1.2721531011238223e+00,	 0.0000000000000000e+00,	 3.3031671843291747e-02,	 1.6185320639935649e+03,	 8.2433490249200769e-04,	 1.0543243075872731e+03,	 1.0019238440006482e+04,	 6.2309901286928607e+02,	 2.5975519629547397e+00 
1.3031812255414763e+00,	 0.0000000000000000e+00,	 3.2814392009380022e-02,	 1.6202624407856433e+03,	 7.7949609195282488e-04,	 1.0515444112858131e+03,	 9.9270890799987883e+03,	 6.2227702009614734e+02,	 2.6037639000962720e+00 
1.3342093499591305e+00,	 0.0000000000000000e+00,	 3.2599529159179352e-02,	 1.6219779615271236e+03,	 1.0733245381857603e-03,	 1.0487822956523787e+03,	 9.8361832802804074e+03,	 6.2145920809724851e+02,	 2.6099508067368840e+00 
1.3652374743767848e+00,	 0.0000000000000000e+00,	 3.2386934304269969e-02,	 1.6236782760346248e+03,	 1.2054454986634155e-03,	 1.0460417309121303e+03,	 9.7465022744110483e+03,	 6.2064671189199328e+02,	 2.6161071104129676e+00 
1.3962655987944390e+00,	 0.0000000000000000e+00,	 3.2176651707533900e-02,	 1.6253641520205788e+03,	 9.8988538234523471e-04,	 1.0433231801188117e+03,	 9.6580543158543678e+03,	 6.1983968993491771e+02,	 2.6222331006127422e+00 
1.4272937232120932e+00,	 0.0000000000000000e+00,	 3.1968714796523308e-02,	 1.6270350031832509e+03,	 1.0611067067709534e-03,	 1.0406205436077707e+03,	 9.5707838917870140e+03,	 6.1903634937772370e+02,	 2.6283351612860013e+00 
1.4583218476297475e+00,	 0.0000000000000000e+00,	 3.1763096959349868e-02,	 1.6286943445984562e+03,	 1.0850658636362143e-03,	 1.0379340151820402e+03,	 9.4846764990936972e+03,	 6.1823676228989677e+02,	 2.6344184686887129e+00 
1.4893499720474015e+00,	 0.0000000000000000e+00,	 3.1559635575061369e-02,	 1.6303437919381120e+03,	 1.0730055804102356e-03,	 1.0352696979013624e+03,	 9.3997308798888389e+03,	 6.1744276321211362e+02,	 2.6404776103568710e+00 
1.5203780964650557e+00,	 0.0000000000000000e+00,	 3.1358249882994738e-02,	 1.6319796042040844e+03,	 9.2780673611025932e-04,	 1.0326264394388165e+03,	 9.3159037868309752e+03,	 6.1665402966188537e+02,	 2.6465076456228966e+00 
1.5514062208827100e+00,	 0.0000000000000000e+00,	 3.1159065494757224e-02,	 1.6335994593239986e+03,	 1.0747047266409515e-03,	 1.0299971116983231e+03,	 9.2331601480973368e+03,	 6.1586845081415117e+02,	 2.6525136287868047e+00 
1.5824343453003642e+00,	 0.0000000000000000e+00,	 3.0962075674267647e-02,	 1.6352053256794070e+03,	 1.3805392333731126e-03,	 1.0273835097879105e+03,	 9.1515065724516244e+03,	 6.1508657611522415e+02,	 2.6584962006611357e+00 
1.6134624697180184e+00,	 0.0000000000000000e+00,	 3.0767141994258319e-02,	 1.6368010479432901e+03,	 1.4142762810842591e-03,	 1.0247928567313465e+03,	 9.0709585587608854e+03,	 6.1431058462806880e+02,	 2.6644519708786945e+00 
1.6444905941356727e+00,	 0.0000000000000000e+00,	 3.0574123406078908e-02,	 1.6383841484524203e+03,	 1.0292964368575630e-03,	 1.0222202500283132e+03,	 8.9914230457161211e+03,	 6.1353902743110928e+02,	 2.6703829344201062e+00 
1.6755187185533269e+00,	 0.0000000000000000e+00,	 3.0383120972637984e-02,	 1.6399550741732210e+03,	 9.8398433150392872e-04,	 1.0196585814693707e+03,	 8.9128602886471654e+03,	 6.1276978541805283e+02,	 2.6762988534995760e+00 
1.7065468429709809e+00,	 0.0000000000000000e+00,	 3.0194227587025634e-02,	 1.6415180882244115e+03,	 1.3762580852940687e-03,	 1.0171142119307804e+03,	 8.8353464636635999e+03,	 6.1200478101394390e+02,	 2.6821981447683956e+00 
1.7375749673886351e+00,	 0.0000000000000000e+00,	 3.0007048697519668e-02,	 1.6430686183950379e+03,	 1.5367949636996281e-03,	 1.0145902150035527e+03,	 8.7587854871131985e+03,	 6.1124495598041051e+02,	 2.6880690013389894e+00 
1.7686030918062894e+00,	 0.0000000000000000e+00,	 2.9821654952074568e-02,	 1.6446051282867493e+03,	 1.2184080416468568e-03,	 1.0120820543024163e+03,	 8.6831519836343341e+03,	 6.1048896148175584e+02,	 2.6939146029691954e+00 
1.7996312162239436e+00,	 0.0000000000000000e+00,	 2.9638404372163238e-02,	 1.6461319623421070e+03,	 1.5645070148179174e-03,	 1.0095870467450474e+03,	 8.6085206650308974e+03,	 6.0973600154827341e+02,	 2.6997453949953858e+00 
1.8306593406415979e+00,	 0.0000000000000000e+00,	 2.9456798618578188e-02,	 1.6476440032782648e+03,	 1.9809216649561145e-03,	 1.0071045481133774e+03,	 8.5347349889060315e+03,	 6.0898589265988437e+02,	 2.7055536476928816e+00 
1.8616874650592521e+00,	 0.0000000000000000e+00,	 2.9276788674654337e-02,	 1.6491478271765725e+03,	 1.8009827634430930e-03,	 1.0046414988900082e+03,	 8.4618337611588104e+03,	 6.0824074635876570e+02,	 2.7113405950689464e+00 
1.8927155894769061e+00,	 0.0000000000000000e+00,	 2.9098750435599331e-02,	 1.6506467718515137e+03,	 1.8254297361427474e-03,	 1.0021963492412350e+03,	 8.3899059734871389e+03,	 6.0750011117570500e+02,	 2.7171135304946676e+00 
1.9237437138945603e+00,	 0.0000000000000000e+00,	 2.8922316476832188e-02,	 1.6521252584130846e+03,	 2.6694108856636367e-03,	 9.9976105420494036e+02,	 8.3187720929810384e+03,	 6.0676156236462737e+02,	 2.7228574795949463e+00 
1.9547718383122146e+00,	 0.0000000000000000e+00,	 2.8748089328387898e-02,	 1.6535906458149643e+03,	 4.5345454646960048e-03,	 9.9735393163968206e+02,	 8.2487516294687248e+03,	 6.0603067289721366e+02,	 2.7285593283850842e+00 
1.9857999627298688e+00,	 0.0000000000000000e+00,	 2.8577051308490524e-02,	 1.6550470531197611e+03,	 4.1320427784315994e-03,	 9.9499111077179418e+02,	 8.1802495535560556e+03,	 6.0531237672328632e+02,	 2.7342032259180300e+00 
2.0168280871475228e+00,	 0.0000000000000000e+00,	 2.8408884772468786e-02,	 1.6564572462953520e+03,	 1.4929368242814212e-03,	 9.9265892614739164e+02,	 8.1130504187408787e+03,	 6.0460255710607771e+02,	 2.7397456838830387e+00 
2.0478562115651773e+00,	 0.0000000000000000e+00,	 2.8244885849965592e-02,	 1.6578220309065482e+03,	 -4.6553745352950759e-04,	 9.9037318637550652e+02,	 8.0476417495678843e+03,	 6.0390606381190355e+02,	 2.7451653994700895e+00 
2.0788843359828313e+00,	 0.0000000000000000e+00,	 2.8087638286275009e-02,	 1.6591710964845488e+03,	 -1.7114200378504085e-03,	 9.8817216944895517e+02,	 7.9850525666594494e+03,	 6.0323462661018993e+02,	 2.7504573233949769e+00 
2.1099124604004857e+00,	 0.0000000000000000e+00,	 2.7936775255856638e-02,	 1.6604796864465811e+03,	 -5.3113096214726374e-03,	 9.8604436205151853e+02,	 7.9250619495564997e+03,	 6.0258481129759878e+02,	 2.7555949889931988e+00 
2.1409405848181398e+00,	 0.0000000000000000e+00,	 2.7791071565922316e-02,	 1.6617326241761377e+03,	 -1.0567137056785914e-02,	 9.8396013304428493e+02,	 7.8670648941549380e+03,	 6.0194762438980581e+02,	 2.7605933753692184e+00 
2.1719687092357942e+00,	 0.0000000000000000e+00,	 2.7647953311099052e-02,	 1.6629619169710616e+03,	 -1.4173797413276290e-02,	 9.8191349934622031e+02,	 7.8102719420433114e+03,	 6.0132127402271340e+02,	 2.7655131938150097e+00 
2.2029968336534482e+00,	 0.0000000000000000e+00,	 2.7502682929190406e-02,	 1.6642139775889518e+03,	 -2.0022519909585701e-02,	 9.7986506470609356e+02,	 7.7530265898697344e+03,	 6.0069371853175130e+02,	 2.7704867328680631e+00 
2.2340249580711022e+00,	 0.0000000000000000e+00,	 2.7353800447248486e-02,	 1.6654838779816710e+03,	 -2.3879771157660601e-02,	 9.7778152594056098e+02,	 7.6946600823316048e+03,	 6.0005473530779693e+02,	 2.7755532623179096e+00 
2.2650530824887567e+00,	 0.0000000000000000e+00,	 2.7199172540253419e-02,	 1.6667644796088184e+03,	 -4.6601542959884945e-02,	 9.7564179353522286e+02,	 7.6344195929505086e+03,	 5.9939780953468573e+02,	 2.7807316839449339e+00 
2.2960812069064107e+00,	 0.0000000000000000e+00,	 2.7034188190617942e-02,	 1.6681003619837979e+03,	 -1.1556445203117138e-01,	 9.7342440481705421e+02,	 7.5708649705488033e+03,	 5.9871628175205512e+02,	 2.7861282828411595e+00 
2.3271093313240652e+00,	 0.0000000000000000e+00,	 2.6848777246846305e-02,	 1.6695796883429402e+03,	 -2.5951784190725713e-01,	 9.7099778897871045e+02,	 7.5001973367731352e+03,	 5.9796955659411230e+02,	 2.7920814531463045e+00 
2.3581374557417192e+00,	 0.0000000000000000e+00,	 2.6653641916722991e-02,	 1.6712743556005112e+03,	 -3.2328977261217184e-01,	 9.6821692603601321e+02,	 7.4243624720193238e+03,	 5.9711267324611390e+02,	 2.7989263362696950e+00 
2.3891655801593732e+00,	 0.0000000000000000e+00,	 2.6440643770016981e-02,	 1.6733510210233860e+03,	 8.4421769816324543e-02,	 9.6477608148941465e+02,	 7.3388580998746456e+03,	 5.9605072087637734e+02,	 2.8073970293880639e+00 
2.4201937045770276e+00,	 0.0000000000000000e+00,	 2.6133349549624665e-02,	 1.6761774204311348e+03,	 6.1791371257411676e-01,	 9.6003560665663690e+02,	 7.2179248451321137e+03,	 5.9458455534044231e+02,	 2.8190734509857358e+00 
2.4512218289946817e+00,	 0.0000000000000000e+00,	 2.5709905933180059e-02,	 1.6798748868036523e+03,	 9.1635819157699361e-01,	 9.5379167335638317e+02,	 7.0547877452647554e+03,	 5.9264785504722477e+02,	 2.8345249585063836e+00 
2.4822499534123361e+00,	 0.0000000000000000e+00,	 2.5209215177932398e-02,	 1.6842958423970349e+03,	 9.9486163769164593e-01,	 9.4633006107909978e+02,	 6.8632828722959412e+03,	 5.9032513023963213e+02,	 2.8531669243529425e+00 
2.5132780778299901e+00,	 0.0000000000000000e+00,	 2.4653160954147678e-02,	 1.6892948952033594e+03,	 9.2820629103616570e-01,	 9.3793700172928038e+02,	 6.6523672641038038e+03,	 5.8770148507383715e+02,	 2.8744102118424153e+00 
2.5443062022476446e+00,	 0.0000000000000000e+00,	 2.4061973114949196e-02,	 1.6947322170167740e+03,	 8.1657764482147854e-01,	 9.2888472372742945e+02,	 6.4301780010287212e+03,	 5.8485857781783398e+02,	 2.8976789911621776e+00 
2.5753343266652986e+00,	 0.0000000000000000e+00,	 2.3448164046151444e-02,	 1.7004916477500599e+03,	 6.9159236884792774e-01,	 9.1937085407294762e+02,	 6.2019678829236045e+03,	 5.8185573514830241e+02,	 2.9225316271093127e+00 
2.6063624510829526e+00,	 0.0000000000000000e+00,	 2.2822832964596300e-02,	 1.7064682443475483e+03,	 5.5325790599958147e-01,	 9.0950373354443013e+02,	 5.9717824126984888e+03,	 5.7872493744581311e+02,	 2.9486690889207101e+00 
2.6373905755006071e+00,	 0.0000000000000000e+00,	 2.2190118129516885e-02,	 1.7125432620929803e+03,	 4.1379439277896424e-01,	 8.9933746615448331e+02,	 5.7413264056736152e+03,	 5.7548140700559100e+02,	 2.9758447297116808e+00 
2.6684186999182611e+00,	 0.0000000000000000e+00,	 2.1552573882651863e-02,	 1.7185860255968798e+03,	 2.8886769248801603e-01,	 8.8892669273433830e+02,	 5.5118200137254735e+03,	 5.7214081102603188e+02,	 3.0037816159137405e+00 
2.6994468243359155e+00,	 0.0000000000000000e+00,	 2.0918182508691929e-02,	 1.7245020476042921e+03,	 1.8885872023719763e-01,	 8.7839450835773141e+02,	 5.2861988667972346e+03,	 5.6874129108271552e+02,	 3.0321379597088405e+00 
2.7304749487535696e+00,	 0.0000000000000000e+00,	 2.0301352567033658e-02,	 1.7302932233327376e+03,	 1.3422104401955837e-01,	 8.6796178632152237e+02,	 5.0693878072317266e+03,	 5.6535372245167923e+02,	 3.0605498112493179e+00 
2.7615030731712240e+00,	 0.0000000000000000e+00,	 1.9716135117872045e-02,	 1.7360637581578621e+03,	 1.3676146307071546e-01,	 8.5786206501088714e+02,	 4.8659673084285578e+03,	 5.6205483140920285e+02,	 3.0887800736308169e+00 
2.7925311975888780e+00,	 0.0000000000000000e+00,	 1.9166558539828848e-02,	 1.7418297336848273e+03,	 1.6809641641657924e-01,	 8.4820213159380432e+02,	 4.6770653374996673e+03,	 5.5888137056131916e+02,	 3.1166358972504793e+00 
2.8235593220065320e+00,	 0.0000000000000000e+00,	 1.8647692580084502e-02,	 1.7474838605817988e+03,	 1.7809260097123358e-01,	 8.3893664614169302e+02,	 4.5007428882101303e+03,	 5.5582046896546535e+02,	 3.1439717808690766e+00 
2.8545874464241865e+00,	 0.0000000000000000e+00,	 1.8151966036991127e-02,	 1.7528549862658519e+03,	 1.0471308316638162e-01,	 8.2995225598392278e+02,	 4.3341777423832036e+03,	 5.5283624496293112e+02,	 3.1706585907931752e+00 
2.8856155708418405e+00,	 0.0000000000000000e+00,	 1.7677147611737026e-02,	 1.7577358454040123e+03,	 6.9331825223155619e-02,	 8.2120476368454047e+02,	 4.1763182492830701e+03,	 5.4991514875717667e+02,	 3.1963764787056688e+00 
2.9166436952594950e+00,	 0.0000000000000000e+00,	 1.7224403305768889e-02,	 1.7624033360616422e+03,	 1.7470661663392306e-01,	 8.1269071935800946e+02,	 4.0271649984377586e+03,	 5.4705703045725920e+02,	 3.2216080711874673e+00 
2.9476718196771490e+00,	 0.0000000000000000e+00,	 1.6796207115952425e-02,	 1.7668869239368869e+03,	 2.8572649580712239e-01,	 8.0452105323597073e+02,	 3.8875731350956598e+03,	 5.4430040855657546e+02,	 3.2461613463145311e+00 
2.9786999440948030e+00,	 0.0000000000000000e+00,	 1.6396519269872727e-02,	 1.7711679123676313e+03,	 3.2116527777407722e-01,	 7.9682702263081478e+02,	 3.7587691612208068e+03,	 5.4169144959775838e+02,	 3.2696989084860677e+00 
3.0097280685124574e+00,	 0.0000000000000000e+00,	 1.6025792594121679e-02,	 1.7753753159224593e+03,	 2.9001105315148612e-01,	 7.8959993205169246e+02,	 3.6404624645184122e+03,	 5.3922932776009895e+02,	 3.2924309717798863e+00 
3.0407561929301115e+00,	 0.0000000000000000e+00,	 1.5680455437630216e-02,	 1.7795233838269564e+03,	 2.4702862789185165e-01,	 7.8275181510702521e+02,	 3.5311217622074041e+03,	 5.3688589606309938e+02,	 3.3145281223102478e+00 
3.0717843173477659e+00,	 0.0000000000000000e+00,	 1.5353760234994651e-02,	 1.7834620543841397e+03,	 2.5785849764030866e-01,	 7.7616850222961284e+02,	 3.4284727852590040e+03,	 5.3462339672385394e+02,	 3.3359222285333945e+00 
3.1028124417654199e+00,	 0.0000000000000000e+00,	 1.5040642761507935e-02,	 1.7870291916394804e+03,	 3.4387478437183949e-01,	 7.6980106935167851e+02,	 3.3310016186902458e+03,	 5.3242594278081015e+02,	 3.3563902153069334e+00 
3.1338405661830744e+00,	 0.0000000000000000e+00,	 1.4739930756097986e-02,	 1.7901676913760066e+03,	 4.6967331991272943e-01,	 7.6365469800772348e+02,	 3.2383397345941748e+03,	 5.3029614192778388e+02,	 3.3757887554689847e+00 
3.1648686906007284e+00,	 0.0000000000000000e+00,	 1.4460963404905595e-02,	 1.7930319078108732e+03,	 5.8007980259103231e-01,	 7.5785950890950039e+02,	 3.1529411789617297e+03,	 5.2828016596760165e+02,	 3.3940929778428188e+00 
3.1958968150183824e+00,	 0.0000000000000000e+00,	 1.4214846547808066e-02,	 1.7958678133311598e+03,	 6.5399444352779446e-01,	 7.5264995577665593e+02,	 3.0779754649239535e+03,	 5.2646132659087993e+02,	 3.4112058031721291e+00 
3.2269249394360369e+00,	 0.0000000000000000e+00,	 1.4002449318175399e-02,	 1.7987808080382049e+03,	 7.1168289253242945e-01,	 7.4812225458130752e+02,	 3.0137451250850308e+03,	 5.2487542652143554e+02,	 3.4270626094027477e+00 
3.2579530638536909e+00,	 0.0000000000000000e+00,	 1.3816851843573518e-02,	 1.8015995959799718e+03,	 8.3790761609183018e-01,	 7.4419202247450744e+02,	 2.9581762665282531e+03,	 5.2349490435449729e+02,	 3.4414848661288531e+00 
3.2889811882713453e+00,	 0.0000000000000000e+00,	 1.3642735927758637e-02,	 1.8039848423910582e+03,	 9.9178319528910475e-01,	 7.4052436522901326e+02,	 2.9065029153534656e+03,	 5.2220332147803140e+02,	 3.4545646127128777e+00 
3.3200093126889993e+00,	 0.0000000000000000e+00,	 1.3459346278695040e-02,	 1.8057809683653400e+03,	 1.0365774008693771e+00,	 7.3671643966640090e+02,	 2.8526879347882423e+03,	 5.2085895362492613e+02,	 3.4669294889002789e+00 
3.3510374371066538e+00,	 0.0000000000000000e+00,	 1.3279766927500013e-02,	 1.8070037332986606e+03,	 1.0477366491870614e+00,	 7.3294538267834378e+02,	 2.8002190355383409e+03,	 5.1952417358901755e+02,	 3.4781904845054776e+00 
3.3820655615243078e+00,	 0.0000000000000000e+00,	 1.3135569567183567e-02,	 1.8080262695547658e+03,	 1.1049293156735280e+00,	 7.2971201203313228e+02,	 2.7575941030015624e+03,	 5.1837697288032564e+02,	 3.4878605759304824e+00 
3.4130936859419618e+00,	 0.0000000000000000e+00,	 1.3038329856338333e-02,	 1.8095756499277031e+03,	 9.4436757624155732e-01,	 7.2739145464502667e+02,	 2.7284757371848373e+03,	 5.1755207115716189e+02,	 3.4964132059242927e+00 
3.4441218103596163e+00,	 0.0000000000000000e+00,	 1.2973190181937677e-02,	 1.8116222317356182e+03,	 4.6272539522914435e-01,	 7.2578920426232378e+02,	 2.7088641535148690e+03,	 5.1698174196525804e+02,	 3.5042287643344454e+00 
3.4751499347772703e+00,	 0.0000000000000000e+00,	 1.2916280474144601e-02,	 1.8136374173492554e+03,	 5.9027480538506039e-03,	 7.2442541815768857e+02,	 2.6919134020574575e+03,	 5.1649579919516373e+02,	 3.5114272375205862e+00 
3.5061780591949248e+00,	 0.0000000000000000e+00,	 1.2828060013056419e-02,	 1.8147496930692041e+03,	 -1.4587553462079383e-01,	 7.2255193928457879e+02,	 2.6666129966741887e+03,	 5.1582749685927081e+02,	 3.5181329223077173e+00 
3.5372061836125788e+00,	 0.0000000000000000e+00,	 1.2696087760177707e-02,	 1.8148007987659551e+03,	 -1.6980036647632746e-01,	 7.1995513257750122e+02,	 2.6296944233560939e+03,	 5.1489973656828772e+02,	 3.5245712472196753e+00 
3.5682343080302332e+00,	 0.0000000000000000e+00,	 1.2563501997376377e-02,	 1.8143247374926941e+03,	 -5.8367800545358173e-02,	 7.1725391679591655e+02,	 2.5924690430655119e+03,	 5.1393289691414691e+02,	 3.5302755463319584e+00 
3.5992624324478872e+00,	 0.0000000000000000e+00,	 1.2491602480864884e-02,	 1.8145469081457252e+03,	 1.1229235675899862e-01,	 7.1537556986235359e+02,	 2.5708823198609884e+03,	 5.1325951117238230e+02,	 3.5353400611623043e+00 
3.6302905568655413e+00,	 0.0000000000000000e+00,	 1.2488505762255468e-02,	 1.8165230027879975e+03,	 6.7760809737364314e-02,	 7.1496715609355329e+02,	 2.5687776138673221e+03,	 5.1311297822698191e+02,	 3.5402008546512715e+00 
3.6613186812831957e+00,	 0.0000000000000000e+00,	 1.2490428631248862e-02,	 1.8190547801817374e+03,	 -2.5038800832292929e-01,	 7.1521134670196784e+02,	 2.5700506093869185e+03,	 5.1320059531019319e+02,	 3.5445297882300135e+00 
3.6923468057008497e+00,	 0.0000000000000000e+00,	 1.2442908561010230e-02,	 1.8207785218147924e+03,	 -4.8802918443302334e-01,	 7.1440988302938433e+02,	 2.5574037696277387e+03,	 5.1291296919167769e+02,	 3.5498782377997991e+00 
3.7233749301185042e+00,	 0.0000000000000000e+00,	 1.2335380849243535e-02,	 1.8209506726631057e+03,	 -4.2506771147662259e-01,	 7.1172380987296731e+02,	 2.5257711308146895e+03,	 5.1194782352564317e+02,	 3.5569068537783242e+00 
3.7544030545361582e+00,	 0.0000000000000000e+00,	 1.2184194270767706e-02,	 1.8197706281785177e+03,	 -1.4219083386768350e-01,	 7.0795237493921672e+02,	 2.4815943715792937e+03,	 5.1058961231810525e+02,	 3.5640572973504443e+00 
3.7854311789538122e+00,	 0.0000000000000000e+00,	 1.2052291370869266e-02,	 1.8187592276794869e+03,	 2.1139186651025699e-01,	 7.0476221075447006e+02,	 2.4436678164662458e+03,	 5.0943790784656386e+02,	 3.5701293758299699e+00 
3.8164593033714667e+00,	 0.0000000000000000e+00,	 1.2016794497147210e-02,	 1.8205028848157904e+03,	 5.4985902590893110e-01,	 7.0382200741313250e+02,	 2.4332202051067716e+03,	 5.0909798108167655e+02,	 3.5759382977450320e+00 
3.8474874277891207e+00,	 0.0000000000000000e+00,	 1.2042569535416874e-02,	 1.8246440150185238e+03,	 5.1796461301110730e-01,	 7.0444755188840463e+02,	 2.4406065042347500e+03,	 5.0932416944773729e+02,	 3.5824808599103282e+00 
3.8785155522067751e+00,	 0.0000000000000000e+00,	 1.2004073164992702e-02,	 1.8281319706563486e+03,	 -5.2609801462467631e-02,	 7.0378249185562629e+02,	 2.4305078599207709e+03,	 5.0908368941935902e+02,	 3.5910244413810317e+00 
3.9095436766244291e+00,	 0.0000000000000000e+00,	 1.1857780253533861e-02,	 1.8290425570264479e+03,	 -3.9789357248822588e-01,	 7.0050713663553699e+02,	 2.3897138435195579e+03,	 5.0789768771254319e+02,	 3.6012028496198214e+00 
3.9405718010420836e+00,	 0.0000000000000000e+00,	 1.1649982111581190e-02,	 1.8278034804552653e+03,	 -3.6586291989395114e-02,	 6.9544623440065743e+02,	 2.3308737766347026e+03,	 5.0605967647992941e+02,	 3.6118338721143344e+00 
3.9715999254597376e+00,	 0.0000000000000000e+00,	 1.1454551114079396e-02,	 1.8259185649187311e+03,	 6.0631010938230889e-01,	 6.9061342028321906e+02,	 2.2758468082782420e+03,	 5.0429824908734037e+02,	 3.6207118880308258e+00 
4.0026280498773916e+00,	 0.0000000000000000e+00,	 1.1343140147874652e-02,	 1.8266374317359184e+03,	 9.1994518997220776e-01,	 6.8780657341399524e+02,	 2.2445514121914125e+03,	 5.0327240084484265e+02,	 3.6295208327030553e+00 
4.0336561742950456e+00,	 0.0000000000000000e+00,	 1.1348324330700850e-02,	 1.8313303692270156e+03,	 9.9860379332771809e-01,	 6.8788550772712142e+02,	 2.2458349527306750e+03,	 5.0330127838333232e+02,	 3.6386369757954014e+00 
4.0646842987127005e+00,	 0.0000000000000000e+00,	 1.1377667578370705e-02,	 1.8366331242453748e+03,	 7.9687077297803444e-01,	 6.8863251921838298e+02,	 2.2540871633924889e+03,	 5.0357448505633494e+02,	 3.6471929210460248e+00 
4.0957124231303546e+00,	 0.0000000000000000e+00,	 1.1293341503735191e-02,	 1.8390739158505537e+03,	 2.0296920125668083e-02,	 6.8680495737644196e+02,	 2.2314431138662467e+03,	 5.0290582295836566e+02,	 3.6568952515684225e+00 