TITLE = "Final State"
VARIABLES = "X", "Y", "rho", "u", "v", "T", "p", "c", "M"
ZONE I=101, J=51, DATAPACKING=POINT
0.000000,	 10000.000000,	 0.044550,	 1532.900001,	 -0.000002,	 1188.333012,	 15230.558294,	 661.513992,	 2.317260 
0.004140,	 10000.000000,	 0.044550,	 1532.900003,	 -0.000001,	 1188.333012,	 15230.558314,	 661.513992,	 2.317260 
0.008280,	 10000.000000,	 0.044550,	 1532.900003,	 0.000001,	 1188.333012,	 15230.558303,	 661.513992,	 2.317260 
0.012421,	 10000.000000,	 0.044550,	 1532.900002,	 0.000000,	 1188.333011,	 15230.558206,	 661.513992,	 2.317260 
0.016561,	 10000.000000,	 0.044550,	 1532.900004,	 -0.000001,	 1188.333009,	 15230.558072,	 661.513991,	 2.317260 
0.020701,	 10000.000000,	 0.044550,	 1532.900004,	 0.000000,	 1188.333008,	 15230.558091,	 661.513991,	 2.317260 
0.024841,	 10000.000000,	 0.044550,	 1532.900003,	 -0.000000,	 1188.333007,	 15230.557996,	 661.513991,	 2.317260 
0.028981,	 10000.000000,	 0.044550,	 1532.900003,	 0.000001,	 1188.333007,	 15230.557986,	 661.513990,	 2.317260 
0.033122,	 10000.000000,	 0.044550,	 1532.900005,	 0.000000,	 1188.333006,	 15230.557901,	 661.513990,	 2.317260 
0.037262,	 10000.000000,	 0.044550,	 1532.900005,	 -0.000002,	 1188.333004,	 15230.557786,	 661.513990,	 2.317260 
0.041402,	 10000.000000,	 0.044550,	 1532.900004,	 0.000000,	 1188.333003,	 15230.557813,	 661.513990,	 2.317260 
0.045542,	 10000.000000,	 0.044550,	 1532.900003,	 -0.000000,	 1188.333003,	 15230.557772,	 661.513989,	 2.317260 
0.049682,	 10000.000000,	 0.044550,	 1532.900003,	 -0.000000,	 1188.333002,	 15230.557726,	 661.513989,	 2.317260 
0.053823,	 10000.000000,	 0.044550,	 1532.900002,	 -0.000000,	 1188.333002,	 15230.557710,	 661.513989,	 2.317260 
0.057963,	 10000.000000,	 0.044550,	 1532.900002,	 -0.000000,	 1188.333001,	 15230.557668,	 661.513989,	 2.317260 
0.062103,	 10000.000000,	 0.044550,	 1532.900001,	 -0.000000,	 1188.333001,	 15230.557637,	 661.513989,	 2.317260 
0.066243,	 10000.000000,	 0.044550,	 1532.900000,	 0.000000,	 1188.333001,	 15230.557631,	 661.513989,	 2.317260 
0.070383,	 10000.000000,	 0.044550,	 1532.900000,	 -0.000001,	 1188.333000,	 15230.557590,	 661.513989,	 2.317260 
0.074524,	 10000.000000,	 0.044550,	 1532.900000,	 -0.000004,	 1188.333000,	 15230.557584,	 661.513989,	 2.317260 
0.078664,	 10000.000000,	 0.044550,	 1532.899998,	 -0.000001,	 1188.333003,	 15230.557734,	 661.513989,	 2.317260 
0.082804,	 10000.000000,	 0.044550,	 1532.899997,	 0.000000,	 1188.333006,	 15230.557940,	 661.513990,	 2.317260 
0.086944,	 10000.000000,	 0.044550,	 1532.899997,	 0.000004,	 1188.333013,	 15230.558355,	 661.513992,	 2.317260 
0.091084,	 10000.000000,	 0.044550,	 1532.899999,	 0.000005,	 1188.333021,	 15230.558803,	 661.513994,	 2.317260 
0.095225,	 10000.000000,	 0.044550,	 1532.900002,	 -0.000000,	 1188.333023,	 15230.558905,	 661.513995,	 2.317260 
0.099365,	 10000.000000,	 0.044550,	 1532.900004,	 -0.000002,	 1188.333017,	 15230.558607,	 661.513993,	 2.317260 
0.103505,	 10000.000000,	 0.044550,	 1532.900002,	 -0.000008,	 1188.333008,	 15230.558012,	 661.513991,	 2.317260 
0.107645,	 10000.000000,	 0.044550,	 1532.899999,	 -0.000004,	 1188.333001,	 15230.557604,	 661.513989,	 2.317260 
0.111785,	 10000.000000,	 0.044550,	 1532.899999,	 0.000001,	 1188.332999,	 15230.557538,	 661.513988,	 2.317260 
0.115926,	 10000.000000,	 0.044550,	 1532.899999,	 -0.000000,	 1188.332999,	 15230.557542,	 661.513988,	 2.317260 
0.120066,	 10000.000000,	 0.044550,	 1532.900000,	 -0.000001,	 1188.333000,	 15230.557549,	 661.513989,	 2.317260 
0.124206,	 10000.000000,	 0.044550,	 1532.900000,	 -0.000002,	 1188.332999,	 15230.557544,	 661.513988,	 2.317260 
0.128346,	 10000.000000,	 0.044550,	 1532.899999,	 -0.000001,	 1188.333000,	 15230.557586,	 661.513989,	 2.317260 
0.132486,	 10000.000000,	 0.044550,	 1532.900000,	 -0.000000,	 1188.332999,	 15230.557565,	 661.513988,	 2.317260 
0.136627,	 10000.000000,	 0.044550,	 1532.900000,	 0.000001,	 1188.332999,	 15230.557573,	 661.513988,	 2.317260 
0.140767,	 10000.000000,	 0.044550,	 1532.900000,	 0.000001,	 1188.333000,	 15230.557599,	 661.513989,	 2.317260 
0.144907,	 10000.000000,	 0.044550,	 1532.900000,	 0.000000,	 1188.333000,	 15230.557605,	 661.513989,	 2.317260 
0.149047,	 10000.000000,	 0.044550,	 1532.900000,	 0.000001,	 1188.333000,	 15230.557617,	 661.513989,	 2.317260 
0.153187,	 10000.000000,	 0.044550,	 1532.900000,	 0.000000,	 1188.333000,	 15230.557600,	 661.513989,	 2.317260 
0.157328,	 10000.000000,	 0.044550,	 1532.900000,	 -0.000000,	 1188.333000,	 15230.557599,	 661.513989,	 2.317260 
0.161468,	 10000.000000,	 0.044550,	 1532.900000,	 -0.000000,	 1188.333000,	 15230.557600,	 661.513989,	 2.317260 
0.165608,	 10000.000000,	 0.044550,	 1532.900000,	 0.000000,	 1188.333000,	 15230.557602,	 661.513989,	 2.317260 
0.169748,	 10000.000000,	 0.044550,	 1532.900000,	 0.000000,	 1188.333000,	 15230.557602,	 661.513989,	 2.317260 
0.173888,	 10000.000000,	 0.044550,	 1532.900000,	 -0.000000,	 1188.333000,	 15230.557601,	 661.513989,	 2.317260 
0.178029,	 10000.000000,	 0.044550,	 1532.900000,	 -0.000000,	 1188.333000,	 15230.557601,	 661.513989,	 2.317260 
0.182169,	 10000.000000,	 0.044550,	 1532.900000,	 0.000000,	 1188.333000,	 15230.557602,	 661.513989,	 2.317260 
0.186309,	 10000.000000,	 0.044550,	 1532.900000,	 -0.000000,	 1188.333000,	 15230.557602,	 661.513989,	 2.317260 
0.190449,	 10000.000000,	 0.044550,	 1532.900000,	 -0.000000,	 1188.333000,	 15230.557602,	 661.513989,	 2.317260 
0.194589,	 10000.000000,	 0.044550,	 1532.900000,	 -0.000000,	 1188.333000,	 15230.557602,	 661.513989,	 2.317260 
0.198730,	 10000.000000,	 0.044550,	 1532.900000,	 -0.000000,	 1188.333000,	 15230.557602,	 661.513989,	 2.317260 
0.202870,	 10000.000000,	 0.044550,	 1532.900000,	 0.000000,	 1188.333000,	 15230.557603,	 661.513989,	 2.317260 
0.207010,	 10000.000000,	 0.044550,	 1532.900000,	 0.000000,	 1188.333000,	 15230.557603,	 661.513989,	 2.317260 
0.211150,	 10000.000000,	 0.044550,	 1532.900000,	 0.000000,	 1188.333000,	 15230.557603,	 661.513989,	 2.317260 
0.215290,	 10000.000000,	 0.044550,	 1532.900000,	 0.000000,	 1188.333000,	 15230.557603,	 661.513989,	 2.317260 
0.219431,	 10000.000000,	 0.044550,	 1532.900000,	 0.000000,	 1188.333000,	 15230.557603,	 661.513989,	 2.317260 
0.223571,	 10000.000000,	 0.044550,	 1532.900000,	 0.000000,	 1188.333000,	 15230.557603,	 661.513989,	 2.317260 
0.227711,	 10000.000000,	 0.044550,	 1532.900000,	 -0.000000,	 1188.333000,	 15230.557603,	 661.513989,	 2.317260 
0.231851,	 10000.000000,	 0.044550,	 1532.900000,	 -0.000000,	 1188.333000,	 15230.557603,	 661.513989,	 2.317260 
0.235991,	 10000.000000,	 0.044550,	 1532.900000,	 -0.000000,	 1188.333000,	 15230.557603,	 661.513989,	 2.317260 
0.240132,	 10000.000000,	 0.044550,	 1532.900000,	 0.000000,	 1188.333000,	 15230.557603,	 661.513989,	 2.317260 
0.244272,	 10000.000000,	 0.044550,	 1532.900000,	 -0.000000,	 1188.333000,	 15230.557603,	 661.513989,	 2.317260 
0.248412,	 10000.000000,	 0.044550,	 1532.900000,	 0.000000,	 1188.333000,	 15230.557603,	 661.513989,	 2.317260 
0.252552,	 10000.000000,	 0.044550,	 1532.900000,	 0.000000,	 1188.333000,	 15230.557603,	 661.513989,	 2.317260 
0.256692,	 10000.000000,	 0.044550,	 1532.900000,	 0.000000,	 1188.333000,	 15230.557603,	 661.513989,	 2.317260 
0.260833,	 10000.000000,	 0.044550,	 1532.900000,	 -0.000000,	 1188.333000,	 15230.557603,	 661.513989,	 2.317260 
0.264973,	 10000.000000,	 0.044550,	 1532.900000,	 -0.000000,	 1188.333000,	 15230.557603,	 661.513989,	 2.317260 
0.269113,	 10000.000000,	 0.044550,	 1532.900000,	 -0.000000,	 1188.333000,	 15230.557603,	 661.513989,	 2.317260 
0.273253,	 10000.000000,	 0.044550,	 1532.900000,	 -0.000000,	 1188.333000,	 15230.557603,	 661.513989,	 2.317260 
0.277393,	 10000.000000,	 0.044550,	 1532.900000,	 -0.000000,	 1188.333000,	 15230.557603,	 661.513989,	 2.317260 
0.281534,	 10000.000000,	 0.044550,	 1532.900000,	 0.000000,	 1188.333000,	 15230.557603,	 661.513989,	 2.317260 
0.285674,	 10000.000000,	 0.044550,	 1532.900000,	 0.000000,	 1188.333000,	 15230.557603,	 661.513989,	 2.317260 
0.289814,	 10000.000000,	 0.044550,	 1532.900000,	 0.000000,	 1188.333000,	 15230.557603,	 661.513989,	 2.317260 
0.293954,	 10000.000000,	 0.044550,	 1532.900000,	 0.000000,	 1188.333000,	 15230.557603,	 661.513989,	 2.317260 
0.298094,	 10000.000000,	 0.044550,	 1532.900000,	 0.000000,	 1188.333000,	 15230.557603,	 661.513989,	 2.317260 
0.302235,	 10000.000000,	 0.044550,	 1532.900000,	 0.000000,	 1188.333000,	 15230.557603,	 661.513989,	 2.317260 
0.306375,	 10000.000000,	 0.044550,	 1532.900000,	 0.000000,	 1188.333000,	 15230.557603,	 661.513989,	 2.317260 
0.310515,	 10000.000000,	 0.044550,	 1532.900000,	 0.000000,	 1188.333000,	 15230.557603,	 661.513989,	 2.317260 
0.314655,	 10000.000000,	 0.044550,	 1532.900000,	 0.000000,	 1188.333000,	 15230.557603,	 661.513989,	 2.317260 
0.318795,	 10000.000000,	 0.044550,	 1532.900000,	 0.000000,	 1188.333000,	 15230.557603,	 661.513989,	 2.317260 
0.322936,	 10000.000000,	 0.044550,	 1532.900000,	 0.000000,	 1188.333000,	 15230.557603,	 661.513989,	 2.317260 
0.327076,	 10000.000000,	 0.044550,	 1532.900000,	 0.000000,	 1188.333000,	 15230.557603,	 661.513989,	 2.317260 
0.331216,	 10000.000000,	 0.044550,	 1532.900000,	 0.000000,	 1188.333000,	 15230.557603,	 661.513989,	 2.317260 
0.335356,	 10000.000000,	 0.044550,	 1532.900000,	 0.000000,	 1188.333000,	 15230.557603,	 661.513989,	 2.317260 
0.339496,	 10000.000000,	 0.044550,	 1532.900000,	 0.000000,	 1188.333000,	 15230.557603,	 661.513989,	 2.317260 
0.343637,	 10000.000000,	 0.044550,	 1532.900000,	 0.000000,	 1188.333000,	 15230.557603,	 661.513989,	 2.317260 
0.347777,	 10000.000000,	 0.044550,	 1532.900000,	 0.000000,	 1188.333000,	 15230.557603,	 661.513989,	 2.317260 
0.351917,	 10000.000000,	 0.044550,	 1532.900000,	 0.000000,	 1188.333000,	 15230.557603,	 661.513989,	 2.317260 
0.356057,	 10000.000000,	 0.044550,	 1532.900000,	 0.000000,	 1188.333000,	 15230.557603,	 661.513989,	 2.317260 
0.360197,	 10000.000000,	 0.044550,	 1532.900000,	 0.000000,	 1188.333000,	 15230.557603,	 661.513989,	 2.317260 
0.364338,	 10000.000000,	 0.044550,	 1532.900000,	 0.000000,	 1188.333000,	 15230.557603,	 661.513989,	 2.317260 
0.368478,	 10000.000000,	 0.044550,	 1532.900000,	 -0.000000,	 1188.333000,	 15230.557603,	 661.513989,	 2.317260 
0.372618,	 10000.000000,	 0.044550,	 1532.900000,	 -0.000000,	 1188.333000,	 15230.557603,	 661.513989,	 2.317260 
0.376758,	 10000.000000,	 0.044550,	 1532.900000,	 -0.000000,	 1188.333000,	 15230.557603,	 661.513989,	 2.317260 
0.380898,	 10000.000000,	 0.044550,	 1532.900000,	 0.000000,	 1188.333000,	 15230.557603,	 661.513989,	 2.317260 
0.385039,	 10000.000000,	 0.044550,	 1532.900000,	 -0.000000,	 1188.333000,	 15230.557603,	 661.513989,	 2.317260 
0.389179,	 10000.000000,	 0.044550,	 1532.900000,	 -0.000000,	 1188.333000,	 15230.557603,	 661.513989,	 2.317260 
0.393319,	 10000.000000,	 0.044550,	 1532.900000,	 0.000000,	 1188.333000,	 15230.557603,	 661.513989,	 2.317260 
0.397459,	 10000.000000,	 0.044550,	 1532.900000,	 0.000000,	 1188.333000,	 15230.557603,	 661.513989,	 2.317260 
0.401599,	 10000.000000,	 0.044550,	 1532.900000,	 -0.000000,	 1188.333000,	 15230.557602,	 661.513989,	 2.317260 
0.405740,	 10000.000000,	 0.044550,	 1532.900000,	 -0.000000,	 1188.333000,	 15230.557602,	 661.513989,	 2.317260 
0.409880,	 10000.000000,	 0.044550,	 1532.900000,	 0.000000,	 1188.333000,	 15230.557600,	 661.513989,	 2.317260 
0.414020,	 10000.000000,	 0.044550,	 1532.900000,	 -0.000000,	 1188.333000,	 15230.557601,	 661.513989,	 2.317260 
0.000000,	 10000.000655,	 0.044550,	 1532.900002,	 -0.000001,	 1188.333012,	 15230.558326,	 661.513992,	 2.317260 
0.004140,	 10000.000663,	 0.044550,	 1532.900002,	 -0.000000,	 1188.333012,	 15230.558323,	 661.513992,	 2.317260 
0.008280,	 10000.000673,	 0.044550,	 1532.900001,	 0.000001,	 1188.333012,	 15230.558313,	 661.513992,	 2.317260 
0.012421,	 10000.000685,	 0.044550,	 1532.900003,	 0.000001,	 1188.333011,	 15230.558254,	 661.513992,	 2.317260 
0.016561,	 10000.000697,	 0.044550,	 1532.900004,	 0.000000,	 1188.333009,	 15230.558131,	 661.513991,	 2.317260 
0.020701,	 10000.000710,	 0.044550,	 1532.900004,	 0.000000,	 1188.333008,	 15230.558098,	 661.513991,	 2.317260 
0.024841,	 10000.000724,	 0.044550,	 1532.900004,	 0.000000,	 1188.333007,	 15230.558025,	 661.513991,	 2.317260 
0.028981,	 10000.000738,	 0.044550,	 1532.900004,	 0.000001,	 1188.333006,	 15230.557981,	 661.513990,	 2.317260 
0.033122,	 10000.000752,	 0.044550,	 1532.900005,	 0.000002,	 1188.333005,	 15230.557943,	 661.513990,	 2.317260 
0.037262,	 10000.000767,	 0.044550,	 1532.900005,	 0.000001,	 1188.333004,	 15230.557846,	 661.513990,	 2.317260 
0.041402,	 10000.000782,	 0.044550,	 1532.900004,	 0.000000,	 1188.333004,	 15230.557811,	 661.513990,	 2.317260 
0.045542,	 10000.000797,	 0.044550,	 1532.900004,	 0.000000,	 1188.333003,	 15230.557777,	 661.513989,	 2.317260 
0.049682,	 10000.000812,	 0.044550,	 1532.900003,	 0.000000,	 1188.333002,	 15230.557737,	 661.513989,	 2.317260 
0.053823,	 10000.000828,	 0.044550,	 1532.900002,	 0.000000,	 1188.333002,	 15230.557706,	 661.513989,	 2.317260 
0.057963,	 10000.000843,	 0.044550,	 1532.900002,	 0.000000,	 1188.333001,	 15230.557666,	 661.513989,	 2.317260 
0.062103,	 10000.000859,	 0.044550,	 1532.900001,	 -0.000000,	 1188.333001,	 15230.557641,	 661.513989,	 2.317260 
0.066243,	 10000.000875,	 0.044550,	 1532.900001,	 0.000000,	 1188.333000,	 15230.557626,	 661.513989,	 2.317260 
0.070383,	 10000.000891,	 0.044550,	 1532.900000,	 -0.000000,	 1188.333000,	 15230.557606,	 661.513989,	 2.317260 
0.074524,	 10000.000907,	 0.044550,	 1532.900000,	 -0.000005,	 1188.333001,	 15230.557639,	 661.513989,	 2.317260 
0.078664,	 10000.000923,	 0.044550,	 1532.899998,	 -0.000008,	 1188.333005,	 15230.557842,	 661.513990,	 2.317260 
0.082804,	 10000.000939,	 0.044550,	 1532.899997,	 -0.000008,	 1188.333009,	 15230.558116,	 661.513991,	 2.317260 
0.086944,	 10000.000955,	 0.044550,	 1532.899997,	 -0.000006,	 1188.333013,	 15230.558343,	 661.513992,	 2.317260 
0.091084,	 10000.000971,	 0.044550,	 1532.899999,	 -0.000008,	 1188.333016,	 15230.558510,	 661.513993,	 2.317260 
0.095225,	 10000.000987,	 0.044550,	 1532.900002,	 -0.000015,	 1188.333015,	 15230.558502,	 661.513993,	 2.317260 
0.099365,	 10000.001002,	 0.044550,	 1532.900004,	 -0.000019,	 1188.333012,	 15230.558291,	 661.513992,	 2.317260 
0.103505,	 10000.001018,	 0.044550,	 1532.900003,	 -0.000016,	 1188.333006,	 15230.557961,	 661.513990,	 2.317260 
0.107645,	 10000.001034,	 0.044550,	 1532.900001,	 -0.000006,	 1188.333001,	 15230.557648,	 661.513989,	 2.317260 
0.111785,	 10000.001049,	 0.044550,	 1532.899999,	 0.000001,	 1188.332999,	 15230.557530,	 661.513988,	 2.317260 
0.115926,	 10000.001065,	 0.044550,	 1532.899999,	 0.000002,	 1188.332999,	 15230.557516,	 661.513988,	 2.317260 
0.120066,	 10000.001080,	 0.044550,	 1532.900000,	 0.000001,	 1188.332999,	 15230.557551,	 661.513988,	 2.317260 
0.124206,	 10000.001096,	 0.044550,	 1532.900001,	 -0.000001,	 1188.332999,	 15230.557582,	 661.513988,	 2.317260 
0.128346,	 10000.001111,	 0.044550,	 1532.900001,	 -0.000001,	 1188.333000,	 15230.557587,	 661.513989,	 2.317260 
0.132486,	 10000.001125,	 0.044550,	 1532.900000,	 0.000000,	 1188.332999,	 15230.557564,	 661.513988,	 2.317260 
0.136627,	 10000.001140,	 0.044550,	 1532.899999,	 0.000001,	 1188.332999,	 15230.557558,	 661.513988,	 2.317260 
0.140767,	 10000.001155,	 0.044550,	 1532.900000,	 0.000001,	 1188.333000,	 15230.557580,	 661.513989,	 2.317260 
0.144907,	 10000.001169,	 0.044550,	 1532.900000,	 0.000000,	 1188.333000,	 15230.557591,	 661.513989,	 2.317260 
0.149047,	 10000.001183,	 0.044550,	 1532.900000,	 0.000001,	 1188.333000,	 15230.557605,	 661.513989,	 2.317260 
0.153187,	 10000.001197,	 0.044550,	 1532.900000,	 0.000000,	 1188.333000,	 15230.557603,	 661.513989,	 2.317260 
0.157328,	 10000.001211,	 0.044550,	 1532.900000,	 0.000000,	 1188.333000,	 15230.557600,	 661.513989,	 2.317260 
0.161468,	 10000.001224,	 0.044550,	 1532.900000,	 -0.000000,	 1188.333000,	 15230.557600,	 661.513989,	 2.317260 
0.165608,	 10000.001237,	 0.044550,	 1532.900000,	 0.000000,	 1188.333000,	 15230.557601,	 661.513989,	 2.317260 
0.169748,	 10000.001250,	 0.044550,	 1532.900000,	 0.000000,	 1188.333000,	 15230.557602,	 661.513989,	 2.317260 
0.173888,	 10000.001263,	 0.044550,	 1532.900000,	 0.000000,	 1188.333000,	 15230.557602,	 661.513989,	 2.317260 
0.178029,	 10000.001275,	 0.044550,	 1532.900000,	 0.000000,	 1188.333000,	 15230.557602,	 661.513989,	 2.317260 
0.182169,	 10000.001287,	 0.044550,	 1532.900000,	 0.000000,	 1188.333000,	 15230.557602,	 661.513989,	 2.317260 
0.186309,	 10000.001299,	 0.044550,	 1532.900000,	 0.000000,	 1188.333000,	 15230.557602,	 661.513989,	 2.317260 
0.190449,	 10000.001310,	 0.044550,	 1532.900000,	 0.000000,	 1188.333000,	 15230.557602,	 661.513989,	 2.317260 
0.194589,	 10000.001321,	 0.044550,	 1532.900000,	 0.000000,	 1188.333000,	 15230.557602,	 661.513989,	 2.317260 
0.198730,	 10000.001332,	 0.044550,	 1532.900000,	 0.000000,	 1188.333000,	 15230.557602,	 661.513989,	 2.317260 
0.202870,	 10000.001343,	 0.044550,	 1532.900000,	 0.000000,	 1188.333000,	 15230.557603,	 661.513989,	 2.317260 
0.207010,	 10000.001353,	 0.044550,	 1532.900000,	 0.000000,	 1188.333000,	 15230.557603,	 661.513989,	 2.317260 
0.211150,	 10000.001362,	 0.044550,	 1532.900000,	 0.000000,	 1188.333000,	 15230.557603,	 661.513989,	 2.317260 
0.215290,	 10000.001371,	 0.044550,	 1532.900000,	 0.000000,	 1188.333000,	 15230.557603,	 661.513989,	 2.317260 
0.219431,	 10000.001380,	 0.044550,	 1532.900000,	 0.000000,	 1188.333000,	 15230.557603,	 661.513989,	 2.317260 
0.223571,	 10000.001389,	 0.044550,	 1532.900000,	 0.000000,	 1188.333000,	 15230.557603,	 661.513989,	 2.317260 
0.227711,	 10000.001397,	 0.044550,	 1532.900000,	 0.000000,	 1188.333000,	 15230.557603,	 661.513989,	 2.317260 
0.231851,	 10000.001405,	 0.044550,	 1532.900000,	 0.000000,	 1188.333000,	 15230.557603,	 661.513989,	 2.317260 
0.235991,	 10000.001412,	 0.044550,	 1532.900000,	 0.000000,	 1188.333000,	 15230.557603,	 661.513989,	 2.317260 
0.240132,	 10000.001419,	 0.044550,	 1532.900000,	 0.000000,	 1188.333000,	 15230.557603,	 661.513989,	 2.317260 
0.244272,	 10000.001426,	 0.044550,	 1532.900000,	 0.000000,	 1188.333000,	 15230.557603,	 661.513989,	 2.317260 
0.248412,	 10000.001433,	 0.044550,	 1532.900000,	 0.000000,	 1188.333000,	 15230.557603,	 661.513989,	 2.317260 
0.252552,	 10000.001439,	 0.044550,	 1532.900000,	 0.000000,	 1188.333000,	 15230.557603,	 661.513989,	 2.317260 
0.256692,	 10000.001446,	 0.044550,	 1532.900000,	 0.000000,	 1188.333000,	 15230.557603,	 661.513989,	 2.317260 
0.260833,	 10000.001451,	 0.044550,	 1532.900000,	 0.000000,	 1188.333000,	 15230.557603,	 661.513989,	 2.317260 
0.264973,	 10000.001457,	 0.044550,	 1532.900000,	 0.000000,	 1188.333000,	 15230.557603,	 661.513989,	 2.317260 
0.269113,	 10000.001462,	 0.044550,	 1532.900000,	 0.000000,	 1188.333000,	 15230.557603,	 661.513989,	 2.317260 
0.273253,	 10000.001467,	 0.044550,	 1532.900000,	 0.000000,	 1188.333000,	 15230.557603,	 661.513989,	 2.317260 
0.277393,	 10000.001472,	 0.044550,	 1532.900000,	 -0.000000,	 1188.333000,	 15230.557603,	 661.513989,	 2.317260 
0.281534,	 10000.001477,	 0.044550,	 1532.900000,	 -0.000000,	 1188.333000,	 15230.557603,	 661.513989,	 2.317260 
0.285674,	 10000.001482,	 0.044550,	 1532.900000,	 0.000000,	 1188.333000,	 15230.557603,	 661.513989,	 2.317260 
0.289814,	 10000.001485,	 0.044550,	 1532.900000,	 0.000000,	 1188.333000,	 15230.557603,	 661.513989,	 2.317260 
0.293954,	 10000.001489,	 0.044550,	 1532.900000,	 0.000000,	 1188.333000,	 15230.557603,	 661.513989,	 2.317260 
0.298094,	 10000.001493,	 0.044550,	 1532.900000,	 0.000000,	 1188.333000,	 15230.557603,	 661.513989,	 2.317260 
0.302235,	 10000.001497,	 0.044550,	 1532.900000,	 0.000000,	 1188.333000,	 15230.557603,	 661.513989,	 2.317260 
0.306375,	 10000.001500,	 0.044550,	 1532.900000,	 0.000000,	 1188.333000,	 15230.557603,	 661.513989,	 2.317260 
0.310515,	 10000.001504,	 0.044550,	 1532.900000,	 0.000000,	 1188.333000,	 15230.557603,	 661.513989,	 2.317260 
0.314655,	 10000.001507,	 0.044550,	 1532.900000,	 0.000000,	 1188.333000,	 15230.557603,	 661.513989,	 2.317260 
0.318795,	 10000.001510,	 0.044550,	 1532.900000,	 0.000000,	 1188.333000,	 15230.557603,	 661.513989,	 2.317260 
0.322936,	 10000.001512,	 0.044550,	 1532.900000,	 0.000000,	 1188.333000,	 15230.557603,	 661.513989,	 2.317260 
0.327076,	 10000.001514,	 0.044550,	 1532.900000,	 0.000000,	 1188.333000,	 15230.557603,	 661.513989,	 2.317260 
0.331216,	 10000.001517,	 0.044550,	 1532.900000,	 0.000000,	 1188.333000,	 15230.557603,	 661.513989,	 2.317260 
0.335356,	 10000.001519,	 0.044550,	 1532.900000,	 0.000000,	 1188.333000,	 15230.557603,	 661.513989,	 2.317260 
0.339496,	 10000.001521,	 0.044550,	 1532.900000,	 0.000000,	 1188.333000,	 15230.557603,	 661.513989,	 2.317260 
0.343637,	 10000.001523,	 0.044550,	 1532.900000,	 0.000000,	 1188.333000,	 15230.557603,	 661.513989,	 2.317260 
0.347777,	 10000.001525,	 0.044550,	 1532.900000,	 0.000000,	 1188.333000,	 15230.557603,	 661.513989,	 2.317260 
0.351917,	 10000.001527,	 0.044550,	 1532.900000,	 0.000000,	 1188.333000,	 15230.557603,	 661.513989,	 2.317260 
0.356057,	 10000.001528,	 0.044550,	 1532.900000,	 0.000000,	 1188.333000,	 15230.557603,	 661.513989,	 2.317260 
0.360197,	 10000.001529,	 0.044550,	 1532.900000,	 0.000000,	 1188.333000,	 15230.557603,	 661.513989,	 2.317260 
0.364338,	 10000.001530,	 0.044550,	 1532.900000,	 0.000000,	 1188.333000,	 15230.557603,	 661.513989,	 2.317260 
0.368478,	 10000.001531,	 0.044550,	 1532.900000,	 0.000000,	 1188.333000,	 15230.557603,	 661.513989,	 2.317260 
0.372618,	 10000.001532,	 0.044550,	 1532.900000,	 -0.000000,	 1188.333000,	 15230.557603,	 661.513989,	 2.317260 
0.376758,	 10000.001533,	 0.044550,	 1532.900000,	 -0.000000,	 1188.333000,	 15230.557603,	 661.513989,	 2.317260 
0.380898,	 10000.001534,	 0.044550,	 1532.900000,	 0.000000,	 1188.333000,	 15230.557603,	 661.513989,	 2.317260 
0.385039,	 10000.001535,	 0.044550,	 1532.900000,	 -0.000000,	 1188.333000,	 15230.557603,	 661.513989,	 2.317260 
0.389179,	 10000.001535,	 0.044550,	 1532.900000,	 -0.000000,	 1188.333000,	 15230.557603,	 661.513989,	 2.317260 
0.393319,	 10000.001535,	 0.044550,	 1532.900000,	 -0.000000,	 1188.333000,	 15230.557603,	 661.513989,	 2.317260 
0.397459,	 10000.001536,	 0.044550,	 1532.900000,	 -0.000000,	 1188.333000,	 15230.557603,	 661.513989,	 2.317260 
0.401599,	 10000.001536,	 0.044550,	 1532.900000,	 0.000000,	 1188.333000,	 15230.557603,	 661.513989,	 2.317260 
0.405740,	 10000.001536,	 0.044550,	 1532.900000,	 -0.000000,	 1188.333000,	 15230.557602,	 661.513989,	 2.317260 
0.409880,	 10000.001537,	 0.044550,	 1532.900000,	 -0.000000,	 1188.333000,	 15230.557602,	 661.513989,	 2.317260 
0.414020,	 10000.001537,	 0.044550,	 1532.900000,	 -0.000000,	 1188.333000,	 15230.557603,	 661.513989,	 2.317260 
0.000000,	 10000.001311,	 0.044550,	 1532.900002,	 -0.000002,	 1188.333011,	 15230.558311,	 661.513992,	 2.317260 
0.004140,	 10000.001325,	 0.044550,	 1532.900002,	 -0.000001,	 1188.333012,	 15230.558311,	 661.513992,	 2.317260 
0.008280,	 10000.001347,	 0.044550,	 1532.900001,	 0.000001,	 1188.333012,	 15230.558329,	 661.513992,	 2.317260 
0.012421,	 10000.001370,	 0.044550,	 1532.900002,	 0.000002,	 1188.333011,	 15230.558292,	 661.513992,	 2.317260 
0.016561,	 10000.001395,	 0.044550,	 1532.900003,	 0.000001,	 1188.333010,	 15230.558188,	 661.513991,	 2.317260 
0.020701,	 10000.001421,	 0.044550,	 1532.900004,	 0.000000,	 1188.333009,	 15230.558109,	 661.513991,	 2.317260 
0.024841,	 10000.001447,	 0.044550,	 1532.900004,	 0.000000,	 1188.333008,	 15230.558056,	 661.513991,	 2.317260 
0.028981,	 10000.001475,	 0.044550,	 1532.900004,	 0.000001,	 1188.333007,	 15230.557991,	 661.513990,	 2.317260 
0.033122,	 10000.001504,	 0.044550,	 1532.900004,	 0.000001,	 1188.333006,	 15230.557953,	 661.513990,	 2.317260 
0.037262,	 10000.001533,	 0.044550,	 1532.900004,	 0.000000,	 1188.333005,	 15230.557887,	 661.513990,	 2.317260 
0.041402,	 10000.001563,	 0.044550,	 1532.900004,	 0.000000,	 1188.333004,	 15230.557826,	 661.513990,	 2.317260 
0.045542,	 10000.001593,	 0.044550,	 1532.900003,	 0.000000,	 1188.333003,	 15230.557772,	 661.513989,	 2.317260 
0.049682,	 10000.001624,	 0.044550,	 1532.900003,	 0.000000,	 1188.333002,	 15230.557741,	 661.513989,	 2.317260 
0.053823,	 10000.001655,	 0.044550,	 1532.900002,	 0.000000,	 1188.333002,	 15230.557706,	 661.513989,	 2.317260 
0.057963,	 10000.001686,	 0.044550,	 1532.900002,	 0.000000,	 1188.333001,	 15230.557661,	 661.513989,	 2.317260 
0.062103,	 10000.001718,	 0.044550,	 1532.900001,	 0.000000,	 1188.333001,	 15230.557634,	 661.513989,	 2.317260 
0.066243,	 10000.001749,	 0.044550,	 1532.900001,	 0.000000,	 1188.333000,	 15230.557617,	 661.513989,	 2.317260 
0.070383,	 10000.001781,	 0.044550,	 1532.900000,	 0.000000,	 1188.333000,	 15230.557622,	 661.513989,	 2.317260 
0.074524,	 10000.001813,	 0.044550,	 1532.899999,	 -0.000003,	 1188.333001,	 15230.557682,	 661.513989,	 2.317260 
0.078664,	 10000.001845,	 0.044550,	 1532.899998,	 -0.000009,	 1188.333004,	 15230.557893,	 661.513990,	 2.317260 
0.082804,	 10000.001877,	 0.044550,	 1532.899997,	 -0.000018,	 1188.333009,	 15230.558185,	 661.513991,	 2.317260 
0.086944,	 10000.001909,	 0.044550,	 1532.899997,	 -0.000024,	 1188.333013,	 15230.558374,	 661.513992,	 2.317260 
0.091084,	 10000.001941,	 0.044550,	 1532.899999,	 -0.000028,	 1188.333013,	 15230.558362,	 661.513992,	 2.317260 
0.095225,	 10000.001973,	 0.044550,	 1532.900001,	 -0.000028,	 1188.333011,	 15230.558226,	 661.513992,	 2.317260 
0.099365,	 10000.002005,	 0.044550,	 1532.900003,	 -0.000025,	 1188.333009,	 15230.558101,	 661.513991,	 2.317260 
0.103505,	 10000.002036,	 0.044550,	 1532.900004,	 -0.000016,	 1188.333006,	 15230.557932,	 661.513990,	 2.317260 
0.107645,	 10000.002068,	 0.044550,	 1532.900004,	 -0.000005,	 1188.333001,	 15230.557684,	 661.513989,	 2.317260 
0.111785,	 10000.002099,	 0.044550,	 1532.900001,	 0.000004,	 1188.332998,	 15230.557478,	 661.513988,	 2.317260 
0.115926,	 10000.002130,	 0.044550,	 1532.899999,	 0.000007,	 1188.332997,	 15230.557403,	 661.513988,	 2.317260 
0.120066,	 10000.002161,	 0.044550,	 1532.899999,	 0.000004,	 1188.332998,	 15230.557469,	 661.513988,	 2.317260 
0.124206,	 10000.002191,	 0.044550,	 1532.900000,	 -0.000000,	 1188.333000,	 15230.557571,	 661.513988,	 2.317260 
0.128346,	 10000.002221,	 0.044550,	 1532.900001,	 -0.000001,	 1188.333000,	 15230.557602,	 661.513989,	 2.317260 
0.132486,	 10000.002251,	 0.044550,	 1532.900000,	 0.000000,	 1188.333000,	 15230.557580,	 661.513989,	 2.317260 
0.136627,	 10000.002280,	 0.044550,	 1532.900000,	 0.000002,	 1188.332999,	 15230.557542,	 661.513988,	 2.317260 
0.140767,	 10000.002309,	 0.044550,	 1532.900000,	 0.000003,	 1188.332999,	 15230.557521,	 661.513988,	 2.317260 
0.144907,	 10000.002338,	 0.044550,	 1532.899999,	 0.000002,	 1188.332999,	 15230.557534,	 661.513988,	 2.317260 
0.149047,	 10000.002366,	 0.044550,	 1532.900000,	 0.000001,	 1188.333000,	 15230.557582,	 661.513989,	 2.317260 
0.153187,	 10000.002394,	 0.044550,	 1532.900000,	 0.000000,	 1188.333000,	 15230.557597,	 661.513989,	 2.317260 
0.157328,	 10000.002422,	 0.044550,	 1532.900000,	 0.000000,	 1188.333000,	 15230.557599,	 661.513989,	 2.317260 
0.161468,	 10000.002448,	 0.044550,	 1532.900000,	 0.000000,	 1188.333000,	 15230.557601,	 661.513989,	 2.317260 
0.165608,	 10000.002475,	 0.044550,	 1532.900000,	 -0.000000,	 1188.333000,	 15230.557602,	 661.513989,	 2.317260 
0.169748,	 10000.002501,	 0.044550,	 1532.900000,	 -0.000000,	 1188.333000,	 15230.557602,	 661.513989,	 2.317260 
0.173888,	 10000.002526,	 0.044550,	 1532.900000,	 0.000000,	 1188.333000,	 15230.557602,	 661.513989,	 2.317260 
0.178029,	 10000.002550,	 0.044550,	 1532.900000,	 0.000000,	 1188.333000,	 15230.557602,	 661.513989,	 2.317260 
0.182169,	 10000.002575,	 0.044550,	 1532.900000,	 0.000000,	 1188.333000,	 15230.557602,	 661.513989,	 2.317260 
0.186309,	 10000.002598,	 0.044550,	 1532.900000,	 0.000000,	 1188.333000,	 15230.557602,	 661.513989,	 2.317260 
0.190449,	 10000.002621,	 0.044550,	 1532.900000,	 0.000000,	 1188.333000,	 15230.557602,	 661.513989,	 2.317260 
0.194589,	 10000.002643,	 0.044550,	 1532.900000,	 0.000000,	 1188.333000,	 15230.557602,	 661.513989,	 2.317260 
0.198730,	 10000.002664,	 0.044550,	 1532.900000,	 0.000000,	 1188.333000,	 15230.557602,	 661.513989,	 2.317260 
0.202870,	 10000.002685,	 0.044550,	 1532.900000,	 0.000000,	 1188.333000,	 15230.557602,	 661.513989,	 2.317260 
0.207010,	 10000.002705,	 0.044550,	 1532.900000,	 0.000000,	 1188.333000,	 15230.557603,	 661.513989,	 2.317260 
0.211150,	 10000.002724,	 0.044550,	 1532.900000,	 0.000000,	 1188.333000,	 15230.557603,	 661.513989,	 2.317260 
0.215290,	 10000.002743,	 0.044550,	 1532.900000,	 0.000000,	 1188.333000,	 15230.557603,	 661.513989,	 2.317260 
0.219431,	 10000.002760,	 0.044550,	 1532.900000,	 0.000000,	 1188.333000,	 15230.557603,	 661.513989,	 2.317260 
0.223571,	 10000.002777,	 0.044550,	 1532.900000,	 0.000000,	 1188.333000,	 15230.557603,	 661.513989,	 2.317260 
0.227711,	 10000.002794,	 0.044550,	 1532.900000,	 0.000000,	 1188.333000,	 15230.557603,	 661.513989,	 2.317260 
0.231851,	 10000.002809,	 0.044550,	 1532.900000,	 0.000000,	 1188.333000,	 15230.557603,	 661.513989,	 2.317260 
0.235991,	 10000.002824,	 0.044550,	 1532.900000,	 0.000000,	 1188.333000,	 15230.557603,	 661.513989,	 2.317260 
0.240132,	 10000.002839,	 0.044550,	 1532.900000,	 0.000000,	 1188.333000,	 15230.557603,	 661.513989,	 2.317260 