TITLE = "Final State"
VARIABLES = "X", "Y", "rho", "u", "v", "T", "p", "c", "M"
ZONE I=101, J=51, DATAPACKING=POINT
0.000000,	 0.000000,	 0.044550,	 1532.899905,	 -0.000427,	 1188.334018,	 15230.637561,	 661.514272,	 2.317259 
0.005352,	 0.000000,	 0.044550,	 1532.899738,	 0.000031,	 1188.334051,	 15230.615014,	 661.514281,	 2.317259 
0.010704,	 0.000000,	 0.044550,	 1532.900146,	 0.000162,	 1188.333225,	 15230.568589,	 661.514051,	 2.317260 
0.016055,	 0.000000,	 0.044550,	 1532.900483,	 -0.000061,	 1188.332773,	 15230.568119,	 661.513926,	 2.317261 
0.021407,	 0.000000,	 0.044550,	 1532.901065,	 -0.000007,	 1188.332878,	 15230.593622,	 661.513955,	 2.317262 
0.026759,	 0.000000,	 0.044550,	 1532.902552,	 -0.000065,	 1188.332828,	 15230.638079,	 661.513941,	 2.317264 
0.032111,	 0.000000,	 0.044550,	 1532.906796,	 -0.000072,	 1188.331372,	 15230.683890,	 661.513536,	 2.317272 
0.037462,	 0.000000,	 0.044552,	 1532.909981,	 -0.003115,	 1188.336111,	 15231.160546,	 661.514855,	 2.317272 
0.042814,	 0.000000,	 0.044552,	 1532.908853,	 -0.002575,	 1188.323461,	 15231.092865,	 661.511334,	 2.317283 
0.048166,	 0.000000,	 0.044529,	 1533.037184,	 -0.000097,	 1188.189308,	 15221.597038,	 661.473993,	 2.317608 
0.053518,	 0.000000,	 0.044489,	 1533.180503,	 0.021479,	 1187.918578,	 15204.270695,	 661.398630,	 2.318088 
0.058870,	 0.000000,	 0.044563,	 1532.493610,	 -0.194028,	 1188.459136,	 15236.506806,	 661.549096,	 2.316523 
0.064221,	 0.000000,	 0.045086,	 1529.102454,	 -0.603576,	 1192.303077,	 15465.180494,	 662.618087,	 2.307668 
0.069573,	 0.000000,	 0.045636,	 1525.091390,	 -1.043899,	 1197.211564,	 15718.327385,	 663.980622,	 2.296892 
0.074925,	 0.000000,	 0.045245,	 1527.000622,	 -0.946670,	 1195.191480,	 15557.462104,	 663.420210,	 2.301710 
0.080277,	 0.000000,	 0.043047,	 1541.653503,	 1.460858,	 1178.184852,	 14591.101698,	 658.683328,	 2.340509 
0.085628,	 0.000000,	 0.039114,	 1568.417102,	 2.486003,	 1146.628929,	 12902.949464,	 649.802535,	 2.413686 
0.090980,	 0.000000,	 0.034698,	 1599.812656,	 0.851289,	 1108.894477,	 11069.302983,	 639.020902,	 2.503538 
0.096332,	 0.000000,	 0.030654,	 1630.595062,	 0.874147,	 1071.124592,	 9446.316291,	 628.043823,	 2.596308 
0.101684,	 0.000000,	 0.027038,	 1660.152202,	 0.649544,	 1034.126041,	 8044.241949,	 617.101626,	 2.690241 
0.107036,	 0.000000,	 0.023944,	 1687.327075,	 0.386938,	 999.503949,	 6885.194679,	 606.683538,	 2.781231 
0.112387,	 0.000000,	 0.021318,	 1712.057949,	 0.393805,	 967.500971,	 5933.841101,	 596.891863,	 2.868288 
0.117739,	 0.000000,	 0.019070,	 1734.687717,	 0.342515,	 937.759270,	 5144.880825,	 587.645800,	 2.951927 
0.123091,	 0.000000,	 0.017144,	 1755.399488,	 0.279159,	 910.196410,	 4489.270122,	 578.945273,	 3.032065 
0.128443,	 0.000000,	 0.015488,	 1774.391778,	 0.251193,	 884.652079,	 3941.731298,	 570.763516,	 3.108804 
0.133795,	 0.000000,	 0.014056,	 1791.846932,	 0.224275,	 860.934538,	 3481.411096,	 563.060445,	 3.182335 
0.139146,	 0.000000,	 0.012811,	 1807.939450,	 0.202687,	 838.849208,	 3091.577420,	 555.791503,	 3.252910 
0.144498,	 0.000000,	 0.011721,	 1822.811956,	 0.155879,	 818.228080,	 2759.222491,	 548.917584,	 3.320739 
0.149850,	 0.000000,	 0.010768,	 1836.553817,	 0.097618,	 799.000298,	 2475.316386,	 542.429654,	 3.385792 
0.155202,	 0.000000,	 0.009938,	 1849.199709,	 0.083718,	 781.173594,	 2233.415041,	 536.344376,	 3.447784 
0.160553,	 0.000000,	 0.009215,	 1860.771454,	 0.106958,	 764.782269,	 2027.614300,	 530.687501,	 3.506341 
0.165905,	 0.000000,	 0.008582,	 1871.410273,	 0.127566,	 749.660624,	 1850.814580,	 525.414802,	 3.561777 
0.171257,	 0.000000,	 0.008022,	 1881.229198,	 0.165436,	 735.637693,	 1697.751892,	 520.477477,	 3.614430 
0.176609,	 0.000000,	 0.007528,	 1890.274629,	 0.249367,	 722.655353,	 1565.002677,	 515.864409,	 3.664286 
0.181961,	 0.000000,	 0.007094,	 1898.515100,	 0.419673,	 710.778589,	 1450.716421,	 511.607759,	 3.710880 
0.187312,	 0.000000,	 0.006723,	 1905.838795,	 0.852509,	 700.192972,	 1354.322386,	 507.783783,	 3.753249 
0.192664,	 0.000000,	 0.006411,	 1912.070274,	 1.604069,	 691.174691,	 1274.708851,	 504.503133,	 3.790008 
0.198016,	 0.000000,	 0.006141,	 1916.806461,	 1.881871,	 684.322243,	 1208.968150,	 501.996029,	 3.818372 
0.203368,	 0.000000,	 0.005921,	 1919.748400,	 0.123352,	 680.074472,	 1158.483515,	 500.435592,	 3.836155 
0.208719,	 0.000000,	 0.005845,	 1920.362697,	 -2.488531,	 678.614238,	 1141.197924,	 499.898044,	 3.841512 
0.214071,	 0.000000,	 0.005977,	 1918.133053,	 -3.391184,	 680.285174,	 1169.846889,	 500.513109,	 3.832339 
0.219423,	 0.000000,	 0.006258,	 1913.728956,	 -2.713216,	 686.990944,	 1236.795742,	 502.973912,	 3.804831 
0.224775,	 0.000000,	 0.006563,	 1907.649550,	 -2.355566,	 696.204010,	 1314.560066,	 506.335309,	 3.767565 
0.230127,	 0.000000,	 0.006750,	 1902.870850,	 -3.442656,	 702.528251,	 1364.269451,	 508.629857,	 3.741176 
0.235478,	 0.000000,	 0.006874,	 1900.122226,	 -3.577406,	 707.675657,	 1399.579984,	 510.489815,	 3.722162 
0.240830,	 0.000000,	 0.006913,	 1899.690783,	 -2.629418,	 709.036908,	 1410.101585,	 510.980556,	 3.717740 
0.246182,	 0.000000,	 0.006897,	 1900.726431,	 -1.555272,	 707.548583,	 1403.874372,	 510.443980,	 3.723674 
0.251534,	 0.000000,	 0.006852,	 1902.299217,	 -0.659531,	 705.289284,	 1390.390849,	 509.628370,	 3.732719 
0.256885,	 0.000000,	 0.006800,	 1903.524747,	 -0.148737,	 703.565175,	 1376.389851,	 509.005085,	 3.739697 
0.262237,	 0.000000,	 0.006748,	 1904.344522,	 -0.097291,	 702.414687,	 1363.675125,	 508.588745,	 3.744370 
0.267589,	 0.000000,	 0.006719,	 1904.898856,	 -0.238371,	 701.610425,	 1356.278524,	 508.297496,	 3.747606 
0.272941,	 0.000000,	 0.006714,	 1905.208573,	 -0.182848,	 701.159627,	 1354.340844,	 508.134174,	 3.749420 
0.278293,	 0.000000,	 0.006714,	 1905.366970,	 -0.030246,	 700.927685,	 1353.904626,	 508.050122,	 3.750352 
0.283644,	 0.000000,	 0.006711,	 1905.462964,	 -0.003951,	 700.786333,	 1352.973502,	 507.998892,	 3.750920 
0.288996,	 0.000000,	 0.006708,	 1905.520523,	 -0.001546,	 700.701039,	 1352.223966,	 507.967977,	 3.751261 
0.294348,	 0.000000,	 0.006705,	 1905.583268,	 -0.013504,	 700.608265,	 1351.404462,	 507.934348,	 3.751633 
0.299700,	 0.000000,	 0.006700,	 1905.671107,	 -0.047901,	 700.479201,	 1350.261728,	 507.887560,	 3.752152 
0.305051,	 0.000000,	 0.006694,	 1905.792060,	 -0.072317,	 700.302258,	 1348.696738,	 507.823409,	 3.752864 
0.310403,	 0.000000,	 0.006687,	 1905.940038,	 -0.074231,	 700.086192,	 1346.790235,	 507.745063,	 3.753734 
0.315755,	 0.000000,	 0.006679,	 1906.105275,	 -0.058420,	 699.845203,	 1344.668389,	 507.657666,	 3.754706 
0.321107,	 0.000000,	 0.006670,	 1906.277218,	 -0.037103,	 699.594614,	 1342.466731,	 507.566771,	 3.755717 
0.326459,	 0.000000,	 0.006661,	 1906.449867,	 0.000989,	 699.343027,	 1340.261186,	 507.475498,	 3.756733 
0.331810,	 0.000000,	 0.006653,	 1906.604682,	 0.042873,	 699.117362,	 1338.152861,	 507.393615,	 3.757644 
0.337162,	 0.000000,	 0.006646,	 1906.733770,	 0.038042,	 698.929064,	 1336.338664,	 507.325280,	 3.758405 
0.342514,	 0.000000,	 0.006642,	 1906.832662,	 0.028447,	 698.784453,	 1335.210321,	 507.272794,	 3.758989 
0.347866,	 0.000000,	 0.006639,	 1906.909386,	 0.016260,	 698.671925,	 1334.397140,	 507.231948,	 3.759443 
0.353217,	 0.000000,	 0.006634,	 1907.008354,	 -0.050390,	 698.527245,	 1333.133140,	 507.179427,	 3.760027 
0.358569,	 0.000000,	 0.006627,	 1907.147923,	 -0.095535,	 698.323596,	 1331.355194,	 507.105490,	 3.760850 
0.363921,	 0.000000,	 0.006618,	 1907.322113,	 -0.101342,	 698.069805,	 1329.143124,	 507.013333,	 3.761878 
0.369273,	 0.000000,	 0.006609,	 1907.512915,	 -0.076483,	 697.791999,	 1326.725799,	 506.912436,	 3.763003 
0.374625,	 0.000000,	 0.006599,	 1907.710233,	 -0.047512,	 697.504876,	 1324.232143,	 506.808135,	 3.764167 
0.379976,	 0.000000,	 0.006589,	 1907.910567,	 -0.008065,	 697.213423,	 1321.705662,	 506.702239,	 3.765349 
0.385328,	 0.000000,	 0.006579,	 1908.095242,	 0.039271,	 696.944698,	 1319.097052,	 506.604581,	 3.766439 
0.390680,	 0.000000,	 0.006569,	 1908.245382,	 0.019665,	 696.726145,	 1316.709217,	 506.525143,	 3.767326 
0.396032,	 0.000000,	 0.006564,	 1908.341516,	 -0.013624,	 696.585909,	 1315.417418,	 506.474164,	 3.767895 
0.401383,	 0.000000,	 0.006564,	 1908.384969,	 -0.013118,	 696.516216,	 1315.354457,	 506.448827,	 3.768169 
0.406735,	 0.000000,	 0.006565,	 1908.406701,	 -0.006175,	 696.483840,	 1315.452621,	 506.437056,	 3.768300 
0.412087,	 0.000000,	 0.006563,	 1908.442440,	 -0.070859,	 696.436985,	 1315.005271,	 506.420021,	 3.768497 
0.417439,	 0.000000,	 0.006559,	 1908.524762,	 -0.120417,	 696.316743,	 1313.966567,	 506.376302,	 3.768985 
0.422791,	 0.000000,	 0.006553,	 1908.650565,	 -0.135149,	 696.133483,	 1312.385089,	 506.309662,	 3.769730 
0.428142,	 0.000000,	 0.006545,	 1908.807723,	 -0.122446,	 695.904800,	 1310.414357,	 506.226493,	 3.770659 
0.433494,	 0.000000,	 0.006536,	 1908.989682,	 -0.099184,	 695.640202,	 1308.137576,	 506.130244,	 3.771736 
0.438846,	 0.000000,	 0.006527,	 1909.189748,	 -0.074328,	 695.349395,	 1305.639300,	 506.024441,	 3.772920 
0.444198,	 0.000000,	 0.006516,	 1909.401939,	 -0.052559,	 695.041044,	 1302.994623,	 505.912231,	 3.774176 
0.449550,	 0.000000,	 0.006506,	 1909.619566,	 -0.034662,	 694.724853,	 1300.287203,	 505.797142,	 3.775465 
0.454901,	 0.000000,	 0.006495,	 1909.836575,	 0.005713,	 694.409585,	 1297.487721,	 505.682363,	 3.776751 
0.460253,	 0.000000,	 0.006484,	 1910.032279,	 0.028866,	 694.125265,	 1294.763842,	 505.578829,	 3.777912 
0.465605,	 0.000000,	 0.006475,	 1910.195564,	 0.007592,	 693.888015,	 1292.538957,	 505.492419,	 3.778881 
0.470957,	 0.000000,	 0.006469,	 1910.322728,	 0.000157,	 693.703182,	 1291.120624,	 505.425090,	 3.779636 
0.476308,	 0.000000,	 0.006466,	 1910.418363,	 0.014599,	 693.564082,	 1290.245642,	 505.374414,	 3.780204 
0.481660,	 0.000000,	 0.006463,	 1910.493306,	 0.000792,	 693.455045,	 1289.461579,	 505.334687,	 3.780649 
0.487012,	 0.000000,	 0.006459,	 1910.584641,	 -0.046868,	 693.322213,	 1288.410497,	 505.286286,	 3.781192 
0.492364,	 0.000000,	 0.006456,	 1910.677981,	 -0.070816,	 693.189546,	 1287.420590,	 505.237940,	 3.781739 
0.497716,	 0.000000,	 0.006452,	 1910.774655,	 0.017541,	 693.052169,	 1286.374279,	 505.187873,	 3.782305 
0.503067,	 0.000000,	 0.006444,	 1910.952087,	 0.188048,	 692.794562,	 1284.445909,	 505.093976,	 3.783360 
0.508419,	 0.000000,	 0.006430,	 1911.282182,	 0.380590,	 692.315219,	 1280.665871,	 504.919209,	 3.785323 
0.513771,	 0.000000,	 0.006405,	 1911.814297,	 0.453411,	 691.542456,	 1274.219370,	 504.637334,	 3.788492 
0.519123,	 0.000000,	 0.006370,	 1912.531661,	 0.392740,	 690.500410,	 1265.452786,	 504.256986,	 3.792772 
0.524474,	 0.000000,	 0.006329,	 1913.402723,	 0.286778,	 689.234299,	 1254.873375,	 503.794468,	 3.797983 
0.529826,	 0.000000,	 0.006282,	 1914.366997,	 0.177086,	 687.825950,	 1243.117730,	 503.279490,	 3.803785 
0.535178,	 0.000000,	 0.006234,	 1915.372288,	 0.132785,	 686.356422,	 1230.965466,	 502.741579,	 3.809855 
0.000000,	 0.000848,	 0.044550,	 1532.900200,	 -0.000555,	 1188.333254,	 15230.668351,	 661.514059,	 2.317260 
0.005352,	 0.000852,	 0.044550,	 1532.900054,	 0.000045,	 1188.333284,	 15230.604670,	 661.514068,	 2.317260 
0.010704,	 0.000864,	 0.044550,	 1532.900225,	 0.000226,	 1188.332947,	 15230.566062,	 661.513974,	 2.317261 
0.016055,	 0.000879,	 0.044550,	 1532.900462,	 0.000012,	 1188.332791,	 15230.570439,	 661.513931,	 2.317261 
0.021407,	 0.000894,	 0.044550,	 1532.900999,	 -0.000046,	 1188.332854,	 15230.594309,	 661.513948,	 2.317262 
0.026759,	 0.000910,	 0.044550,	 1532.902386,	 -0.000100,	 1188.332920,	 15230.641188,	 661.513966,	 2.317264 
0.032111,	 0.000927,	 0.044550,	 1532.906619,	 -0.000257,	 1188.331751,	 15230.680672,	 661.513641,	 2.317271 
0.037462,	 0.000944,	 0.044552,	 1532.909954,	 -0.002963,	 1188.336250,	 15231.213526,	 661.514893,	 2.317272 
0.042814,	 0.000962,	 0.044552,	 1532.913633,	 0.016081,	 1188.317917,	 15230.999901,	 661.509791,	 2.317295 
0.048166,	 0.000980,	 0.044531,	 1533.041297,	 0.053920,	 1188.179157,	 15222.170500,	 661.471167,	 2.317624 
0.053518,	 0.000999,	 0.044500,	 1533.216865,	 0.023055,	 1187.959917,	 15208.649328,	 661.410138,	 2.318103 
0.058870,	 0.001018,	 0.044602,	 1532.511819,	 -0.815706,	 1188.762080,	 15253.992482,	 661.633407,	 2.316256 
0.064221,	 0.001038,	 0.045119,	 1529.165956,	 -2.073433,	 1192.713798,	 15481.925445,	 662.732205,	 2.307368 
0.069573,	 0.001057,	 0.045692,	 1525.579137,	 -1.336936,	 1196.898692,	 15733.488677,	 663.893856,	 2.297927 
0.074925,	 0.001077,	 0.045213,	 1528.472464,	 2.839753,	 1193.495016,	 15524.495025,	 662.949212,	 2.305569 
0.080277,	 0.001097,	 0.042813,	 1543.543328,	 10.463647,	 1175.898639,	 14483.558862,	 658.043945,	 2.345708 
0.085628,	 0.001117,	 0.038936,	 1569.369294,	 16.345586,	 1145.304191,	 12829.390384,	 649.427057,	 2.416675 
0.090980,	 0.001138,	 0.034633,	 1600.087407,	 18.026187,	 1108.279398,	 11042.524667,	 638.843652,	 2.504821 
0.096332,	 0.001158,	 0.030588,	 1630.901022,	 19.294914,	 1070.418096,	 9419.545711,	 627.836666,	 2.597834 
0.101684,	 0.001178,	 0.027002,	 1660.230355,	 19.851141,	 1033.668389,	 8029.895726,	 616.965062,	 2.691156 
0.107036,	 0.001199,	 0.023920,	 1687.297351,	 19.771265,	 999.136784,	 6875.680573,	 606.572096,	 2.781884 
0.112387,	 0.001219,	 0.021295,	 1712.040160,	 19.717154,	 967.113412,	 5925.051845,	 596.772300,	 2.869023 
0.117739,	 0.001240,	 0.019053,	 1734.678541,	 19.565146,	 937.426676,	 5138.565850,	 587.541581,	 2.952623 
0.123091,	 0.001260,	 0.017131,	 1755.406591,	 19.309040,	 909.895024,	 4484.411049,	 578.849415,	 3.032762 
0.128443,	 0.001280,	 0.015477,	 1774.407571,	 19.025209,	 884.368597,	 3937.783233,	 570.672060,	 3.109508 
0.133795,	 0.001301,	 0.014047,	 1791.871598,	 18.726271,	 860.667620,	 3478.189374,	 562.973154,	 3.183046 
0.139146,	 0.001321,	 0.012804,	 1807.974880,	 18.427142,	 838.603874,	 3089.045179,	 555.710222,	 3.253618 
0.144498,	 0.001341,	 0.011718,	 1822.859241,	 18.076449,	 818.031490,	 2757.684159,	 548.851638,	 3.321387 
0.149850,	 0.001361,	 0.010767,	 1836.615638,	 17.643708,	 798.873088,	 2474.688712,	 542.386472,	 3.386331 
0.155202,	 0.001380,	 0.009938,	 1849.269763,	 17.123178,	 781.145441,	 2233.337807,	 536.334711,	 3.448125 
0.160553,	 0.001400,	 0.009215,	 1860.849965,	 16.565532,	 764.819327,	 2027.658139,	 530.700358,	 3.506543 
0.165905,	 0.001419,	 0.008581,	 1871.497234,	 16.033992,	 749.700410,	 1850.811276,	 525.428744,	 3.561979 
0.171257,	 0.001439,	 0.008021,	 1881.320682,	 15.544724,	 735.671409,	 1697.732058,	 520.489404,	 3.614646 
0.176609,	 0.001458,	 0.007528,	 1890.361915,	 15.056887,	 722.697974,	 1565.113758,	 515.879621,	 3.664463 
0.181961,	 0.001476,	 0.007093,	 1898.606578,	 14.518823,	 710.818663,	 1450.434224,	 511.622181,	 3.711063 
0.187312,	 0.001495,	 0.006710,	 1905.955864,	 13.743904,	 700.192827,	 1351.661454,	 507.783731,	 3.753577 
0.192664,	 0.001513,	 0.006384,	 1912.254460,	 12.296761,	 691.063799,	 1269.230652,	 504.462659,	 3.790754 
0.198016,	 0.001531,	 0.006142,	 1917.192329,	 9.732587,	 683.893187,	 1208.480400,	 501.838634,	 3.820385 
0.203368,	 0.001549,	 0.006004,	 1920.472897,	 4.904484,	 679.131404,	 1173.023147,	 500.088491,	 3.840279 
0.208719,	 0.001566,	 0.005974,	 1921.194735,	 -2.368423,	 678.124708,	 1165.496567,	 499.717706,	 3.844563 
0.214071,	 0.001583,	 0.006074,	 1918.698794,	 -9.284852,	 682.009567,	 1191.774826,	 501.147060,	 3.828659 
0.219423,	 0.001600,	 0.006297,	 1913.980740,	 -13.049100,	 688.766526,	 1247.832075,	 503.623480,	 3.800508 
0.224775,	 0.001617,	 0.006579,	 1908.472989,	 -12.480838,	 697.042343,	 1319.288348,	 506.640069,	 3.767001 
0.230127,	 0.001633,	 0.006794,	 1904.164267,	 -9.322241,	 703.618888,	 1375.375428,	 509.024514,	 3.740855 
0.235478,	 0.001649,	 0.006924,	 1901.585288,	 -5.229192,	 706.795745,	 1407.988035,	 510.172349,	 3.727353 
0.240830,	 0.001664,	 0.006957,	 1900.895964,	 -1.194337,	 707.432960,	 1415.838716,	 510.402272,	 3.724310 
0.246182,	 0.001679,	 0.006922,	 1901.417779,	 1.133526,	 706.677656,	 1407.268589,	 510.129729,	 3.727323 
0.251534,	 0.001693,	 0.006861,	 1902.528914,	 2.132397,	 705.064484,	 1391.748794,	 509.547145,	 3.733767 
0.256885,	 0.001707,	 0.006806,	 1903.574725,	 2.231182,	 703.502273,	 1377.563213,	 508.982331,	 3.739965 
0.262237,	 0.001721,	 0.006762,	 1904.421665,	 1.632960,	 702.232740,	 1366.080653,	 508.522871,	 3.745008 
0.267589,	 0.001734,	 0.006733,	 1904.983773,	 0.749305,	 701.420244,	 1358.770616,	 508.228601,	 3.748282 
0.272941,	 0.001747,	 0.006719,	 1905.259310,	 0.196967,	 701.022917,	 1355.088183,	 508.084635,	 3.749886 
0.278293,	 0.001759,	 0.006714,	 1905.386363,	 0.100746,	 700.840543,	 1353.661733,	 508.018540,	 3.750624 
0.283644,	 0.001771,	 0.006711,	 1905.477764,	 0.128718,	 700.716236,	 1352.919281,	 507.973485,	 3.751136 
0.288996,	 0.001783,	 0.006709,	 1905.545842,	 0.128755,	 700.633616,	 1352.234836,	 507.943537,	 3.751491 
0.294348,	 0.001793,	 0.006705,	 1905.607336,	 0.128383,	 700.557155,	 1351.443573,	 507.915820,	 3.751817 
0.299700,	 0.001804,	 0.006701,	 1905.685892,	 0.164137,	 700.448521,	 1350.373579,	 507.876438,	 3.752263 
0.305051,	 0.001814,	 0.006695,	 1905.799791,	 0.230295,	 700.285047,	 1348.873192,	 507.817169,	 3.752925 
0.310403,	 0.001824,	 0.006688,	 1905.951318,	 0.302121,	 700.066917,	 1346.975731,	 507.738074,	 3.753808 
0.315755,	 0.001833,	 0.006680,	 1906.123988,	 0.357742,	 699.813793,	 1344.841463,	 507.646274,	 3.754827 
0.321107,	 0.001842,	 0.006671,	 1906.301341,	 0.396908,	 699.541560,	 1342.529859,	 507.547525,	 3.755907 
0.326459,	 0.001850,	 0.006661,	 1906.476912,	 0.403672,	 699.268210,	 1340.111648,	 507.448351,	 3.756987 
0.331810,	 0.001858,	 0.006653,	 1906.639140,	 0.366500,	 699.025506,	 1337.950856,	 507.360281,	 3.757959 
0.337162,	 0.001866,	 0.006647,	 1906.773537,	 0.275696,	 698.830112,	 1336.279218,	 507.289366,	 3.758749 
0.342514,	 0.001874,	 0.006642,	 1906.872023,	 0.174752,	 698.695336,	 1335.109529,	 507.240446,	 3.759306 
0.347866,	 0.001881,	 0.006639,	 1906.941964,	 0.145961,	 698.618511,	 1334.327211,	 507.212558,	 3.759651 
0.353217,	 0.001888,	 0.006635,	 1907.020592,	 0.183267,	 698.521275,	 1333.293873,	 507.177259,	 3.760067 
0.358569,	 0.001894,	 0.006628,	 1907.147014,	 0.269817,	 698.338801,	 1331.599650,	 507.111011,	 3.760808 
0.363921,	 0.001901,	 0.006619,	 1907.324514,	 0.365086,	 698.082163,	 1329.412250,	 507.017821,	 3.761849 
0.369273,	 0.001907,	 0.006610,	 1907.529890,	 0.433262,	 697.784975,	 1326.956410,	 506.909885,	 3.763055 
0.374625,	 0.001912,	 0.006600,	 1907.737417,	 0.475261,	 697.471813,	 1324.338752,	 506.796123,	 3.764310 
0.379976,	 0.001918,	 0.006589,	 1907.940613,	 0.491357,	 697.150471,	 1321.546583,	 506.679363,	 3.765578 
0.385328,	 0.001923,	 0.006579,	 1908.134749,	 0.463287,	 696.854650,	 1318.947962,	 506.571853,	 3.766760 
0.390680,	 0.001928,	 0.006571,	 1908.295291,	 0.333665,	 696.621607,	 1316.966019,	 506.487141,	 3.767707 
0.396032,	 0.001932,	 0.006567,	 1908.395681,	 0.134437,	 696.475782,	 1315.766172,	 506.434126,	 3.768300 
0.401383,	 0.001937,	 0.006565,	 1908.432308,	 -0.010671,	 696.436892,	 1315.382958,	 506.419987,	 3.768477 
0.406735,	 0.001941,	 0.006565,	 1908.435431,	 -0.023742,	 696.459148,	 1315.436956,	 506.428079,	 3.768423 
0.412087,	 0.001945,	 0.006564,	 1908.445877,	 0.027437,	 696.456620,	 1315.226997,	 506.427160,	 3.768451 
0.417439,	 0.001948,	 0.006560,	 1908.511300,	 0.127356,	 696.362108,	 1314.276461,	 506.392796,	 3.768836 
0.422791,	 0.001952,	 0.006554,	 1908.634897,	 0.239196,	 696.183121,	 1312.734937,	 506.327713,	 3.769564 
0.428142,	 0.001955,	 0.006547,	 1908.800611,	 0.336777,	 695.942939,	 1310.732171,	 506.240364,	 3.770542 
0.433494,	 0.001958,	 0.006538,	 1908.993710,	 0.413852,	 695.662928,	 1308.406278,	 506.138512,	 3.771682 
0.438846,	 0.001961,	 0.006528,	 1909.205603,	 0.472702,	 695.355553,	 1305.857170,	 506.026682,	 3.772935 
0.444198,	 0.001963,	 0.006517,	 1909.427457,	 0.513070,	 695.031786,	 1303.183394,	 505.908862,	 3.774252 
0.449550,	 0.001966,	 0.006506,	 1909.651368,	 0.547110,	 694.690942,	 1300.317948,	 505.784797,	 3.775620 
0.454901,	 0.001968,	 0.006495,	 1909.873049,	 0.548664,	 694.342907,	 1297.362785,	 505.658085,	 3.777005 
0.460253,	 0.001970,	 0.006485,	 1910.077748,	 0.482026,	 694.033456,	 1294.765195,	 505.545393,	 3.778252 
0.465605,	 0.001972,	 0.006477,	 1910.246132,	 0.354341,	 693.788893,	 1292.701043,	 505.456313,	 3.779251 
0.470957,	 0.001974,	 0.006470,	 1910.370817,	 0.227028,	 693.607763,	 1291.155509,	 505.390328,	 3.779991 
0.476308,	 0.001975,	 0.006466,	 1910.460555,	 0.153780,	 693.494497,	 1290.147592,	 505.349061,	 3.780477 
0.481660,	 0.001976,	 0.006464,	 1910.524092,	 0.142921,	 693.430119,	 1289.482716,	 505.325604,	 3.780778 
0.487012,	 0.001978,	 0.006460,	 1910.585750,	 0.170050,	 693.351398,	 1288.661589,	 505.296920,	 3.781115 
0.492364,	 0.001979,	 0.006455,	 1910.676385,	 0.246125,	 693.218312,	 1287.378774,	 505.248423,	 3.781657 
0.497716,	 0.001980,	 0.006447,	 1910.832257,	 0.445937,	 692.990394,	 1285.301471,	 505.165358,	 3.782588 
0.503067,	 0.001980,	 0.006434,	 1911.077686,	 0.792545,	 692.633763,	 1282.106532,	 505.035356,	 3.784048 
0.508419,	 0.001981,	 0.006416,	 1911.438452,	 1.256257,	 692.109345,	 1277.578470,	 504.844129,	 3.786196 
0.513771,	 0.001981,	 0.006393,	 1911.943743,	 1.728931,	 691.374593,	 1271.501353,	 504.576084,	 3.789210 
0.519123,	 0.001982,	 0.006362,	 1912.604600,	 2.120584,	 690.413415,	 1263.574463,	 504.225220,	 3.793158 
0.524474,	 0.001982,	 0.006323,	 1913.415551,	 2.399317,	 689.233798,	 1253.763551,	 503.794285,	 3.798013 
0.529826,	 0.001982,	 0.006279,	 1914.349681,	 2.552903,	 687.877555,	 1242.559367,	 503.298369,	 3.803611 
0.535178,	 0.001983,	 0.006232,	 1915.352889,	 2.621955,	 686.419722,	 1230.618643,	 502.764761,	 3.809644 
0.000000,	 0.001696,	 0.044550,	 1532.900144,	 -0.000339,	 1188.332733,	 15230.689612,	 661.513914,	 2.317261 
0.005352,	 0.001703,	 0.044550,	 1532.900159,	 0.000028,	 1188.332886,	 15230.591143,	 661.513957,	 2.317260 
0.010704,	 0.001729,	 0.044550,	 1532.900240,	 0.000168,	 1188.332946,	 15230.565311,	 661.513974,	 2.317261 
0.016055,	 0.001757,	 0.044550,	 1532.900507,	 0.000078,	 1188.332831,	 15230.572480,	 661.513942,	 2.317261 
0.021407,	 0.001788,	 0.044550,	 1532.901137,	 -0.000119,	 1188.332871,	 15230.594952,	 661.513953,	 2.317262 
0.026759,	 0.001820,	 0.044550,	 1532.902702,	 -0.000121,	 1188.333093,	 15230.640984,	 661.514014,	 2.317264 
0.032111,	 0.001853,	 0.044550,	 1532.907363,	 -0.001233,	 1188.332572,	 15230.678044,	 661.513869,	 2.317272 
0.037462,	 0.001888,	 0.044552,	 1532.909442,	 -0.003897,	 1188.337209,	 15231.221028,	 661.515160,	 2.317270 
0.042814,	 0.001924,	 0.044550,	 1532.922224,	 0.035766,	 1188.306944,	 15230.364255,	 661.506736,	 2.317319 
0.048166,	 0.001961,	 0.044530,	 1533.040173,	 0.120702,	 1188.167444,	 15221.732290,	 661.467907,	 2.317633 
0.053518,	 0.001998,	 0.044508,	 1533.127695,	 -0.002429,	 1188.059494,	 15212.569313,	 661.437857,	 2.317871 
0.058870,	 0.002036,	 0.044652,	 1532.151480,	 -1.573681,	 1189.241524,	 15276.983797,	 661.766816,	 2.315245 
0.064221,	 0.002075,	 0.045144,	 1528.957633,	 -3.668996,	 1192.953162,	 15493.730605,	 662.798703,	 2.306827 
0.069573,	 0.002114,	 0.045574,	 1526.143549,	 -1.771990,	 1196.187916,	 15683.785475,	 663.696701,	 2.299461 
0.074925,	 0.002154,	 0.044920,	 1530.029378,	 7.057230,	 1191.695679,	 15400.442512,	 662.449285,	 2.309680 
0.080277,	 0.002194,	 0.042485,	 1545.327432,	 19.937260,	 1173.726507,	 14346.070008,	 657.435891,	 2.350733 
0.085628,	 0.002235,	 0.038739,	 1570.291182,	 30.429688,	 1143.998750,	 12749.774895,	 649.056836,	 2.419797 
0.090980,	 0.002275,	 0.034543,	 1600.301789,	 35.840702,	 1107.717054,	 11008.403848,	 638.681556,	 2.506262 
0.096332,	 0.002316,	 0.030528,	 1631.041120,	 38.288821,	 1069.910308,	 9396.592071,	 627.687730,	 2.599207 
0.101684,	 0.002357,	 0.026969,	 1660.174083,	 39.308284,	 1033.389061,	 8017.799607,	 616.881695,	 2.691990 
0.107036,	 0.002397,	 0.023897,	 1687.143178,	 39.458479,	 998.933404,	 6867.623620,	 606.510357,	 2.782483 
0.112387,	 0.002438,	 0.021275,	 1711.853786,	 39.264251,	 966.901604,	 5918.057440,	 596.706947,	 2.869590 
0.117739,	 0.002479,	 0.019038,	 1734.444369,	 38.962021,	 937.248016,	 5133.433209,	 587.485590,	 2.953063 
0.123091,	 0.002520,	 0.017120,	 1755.133415,	 38.507611,	 909.747977,	 4480.719339,	 578.802639,	 3.033082 
0.128443,	 0.002561,	 0.015468,	 1774.109489,	 37.943900,	 884.235386,	 3934.909857,	 570.629079,	 3.109753 
0.133795,	 0.002601,	 0.014040,	 1791.555767,	 37.356843,	 860.539230,	 3475.821892,	 562.931162,	 3.183240 
0.139146,	 0.002641,	 0.012798,	 1807.637072,	 36.745189,	 838.489554,	 3087.257525,	 555.672343,	 3.253735 
0.144498,	 0.002681,	 0.011715,	 1822.484572,	 36.045843,	 817.980019,	 2756.821941,	 548.834371,	 3.321295 
0.149850,	 0.002721,	 0.010767,	 1836.200340,	 35.238445,	 798.917621,	 2474.805043,	 542.401589,	 3.385939 
0.155202,	 0.002761,	 0.009941,	 1848.803573,	 34.239905,	 781.270246,	 2234.439520,	 536.377555,	 3.447424 
0.160553,	 0.002800,	 0.009220,	 1860.365792,	 33.145304,	 764.961606,	 2029.034930,	 530.749719,	 3.505722 
0.165905,	 0.002839,	 0.008586,	 1871.008193,	 32.101511,	 749.864453,	 1852.278787,	 525.486226,	 3.561052 
0.171257,	 0.002877,	 0.008027,	 1880.805713,	 31.134282,	 735.896802,	 1699.323349,	 520.569131,	 3.613475 
0.176609,	 0.002915,	 0.007530,	 1889.765759,	 30.053676,	 723.073058,	 1566.419431,	 516.013476,	 3.662704 
0.181961,	 0.002953,	 0.007093,	 1897.857027,	 28.512210,	 711.462273,	 1451.801877,	 511.853752,	 3.708230 
0.187312,	 0.002990,	 0.006724,	 1905.010981,	 26.104896,	 701.169722,	 1356.464754,	 508.137832,	 3.749356 
0.192664,	 0.003026,	 0.006431,	 1911.080605,	 22.143753,	 692.413560,	 1281.059206,	 504.955068,	 3.784909 
0.198016,	 0.003062,	 0.006221,	 1915.737762,	 16.048416,	 685.698361,	 1227.206551,	 502.500513,	 3.812543 
0.203368,	 0.003098,	 0.006110,	 1918.449589,	 7.589125,	 681.808656,	 1198.485184,	 501.073239,	 3.828711 
0.208719,	 0.003133,	 0.006099,	 1918.876966,	 -3.021595,	 681.458632,	 1195.700408,	 500.944603,	 3.830522 
0.214071,	 0.003167,	 0.006175,	 1916.882275,	 -13.785798,	 684.617342,	 1216.291801,	 502.104255,	 3.817796 
0.219423,	 0.003201,	 0.006329,	 1913.171621,	 -20.512425,	 689.711185,	 1255.891139,	 503.968727,	 3.796429 
0.224775,	 0.003233,	 0.006530,	 1909.138507,	 -20.697465,	 695.283281,	 1306.159290,	 506.000385,	 3.773220 
0.230127,	 0.003266,	 0.006710,	 1905.635047,	 -15.191294,	 700.390439,	 1352.129498,	 507.855381,	 3.752438 
0.235478,	 0.003297,	 0.006827,	 1903.187363,	 -7.914930,	 703.996202,	 1382.786240,	 509.160978,	 3.737922 
0.240830,	 0.003328,	 0.006880,	 1902.008674,	 -1.546875,	 705.747840,	 1396.913407,	 509.794015,	 3.730937 
0.246182,	 0.003358,	 0.006882,	 1901.933964,	 2.445427,	 705.844026,	 1397.568412,	 509.828753,	 3.730538 
0.251534,	 0.003387,	 0.006851,	 1902.543312,	 3.951488,	 704.951723,	 1389.436975,	 509.506398,	 3.734099 
0.256885,	 0.003415,	 0.006811,	 1903.407644,	 3.854820,	 703.698346,	 1378.978211,	 509.053255,	 3.739121 
0.262237,	 0.003442,	 0.006778,	 1904.162026,	 2.935450,	 702.606779,	 1369.997372,	 508.658284,	 3.743504 
0.267589,	 0.003469,	 0.006748,	 1904.705961,	 1.798360,	 701.822258,	 1362.501598,	 508.374224,	 3.746663 
0.272941,	 0.003494,	 0.006727,	 1905.088451,	 0.868367,	 701.271857,	 1357.094687,	 508.174840,	 3.748884 
0.278293,	 0.003519,	 0.006714,	 1905.328094,	 0.340595,	 700.929363,	 1353.997382,	 508.050731,	 3.750271 
0.283644,	 0.003542,	 0.006710,	 1905.446922,	 0.189310,	 700.764017,	 1352.671268,	 507.990804,	 3.750948 
0.288996,	 0.003565,	 0.006707,	 1905.489476,	 0.225928,	 700.686090,	 1352.110427,	 507.962558,	 3.751240 
0.294348,	 0.003587,	 0.006705,	 1905.537579,	 0.307868,	 700.598766,	 1351.383938,	 507.930904,	 3.751569 
0.299700,	 0.003608,	 0.006700,	 1905.630512,	 0.418500,	 700.464477,	 1350.138324,	 507.882223,	 3.752111 
0.305051,	 0.003628,	 0.006694,	 1905.754767,	 0.553324,	 700.280102,	 1348.565045,	 507.815376,	 3.752850 
0.310403,	 0.003647,	 0.006687,	 1905.901237,	 0.681920,	 700.063737,	 1346.726469,	 507.736920,	 3.753718 
0.315755,	 0.003666,	 0.006679,	 1906.063582,	 0.770468,	 699.828769,	 1344.656829,	 507.651705,	 3.754668 
0.321107,	 0.003684,	 0.006670,	 1906.240634,	 0.798757,	 699.584749,	 1342.451852,	 507.563192,	 3.755672 
0.326459,	 0.003701,	 0.006662,	 1906.418927,	 0.749501,	 699.342456,	 1340.350986,	 507.475291,	 3.756674 
0.331810,	 0.003717,	 0.006655,	 1906.577126,	 0.632060,	 699.117878,	 1338.490263,	 507.393802,	 3.757589 
0.337162,	 0.003733,	 0.006649,	 1906.701586,	 0.489849,	 698.935232,	 1336.942244,	 507.327518,	 3.758325 
0.342514,	 0.003748,	 0.006644,	 1906.792728,	 0.378575,	 698.792399,	 1335.620637,	 507.275678,	 3.758889 
0.347866,	 0.003762,	 0.006639,	 1906.871166,	 0.362866,	 698.651656,	 1334.370384,	 507.224590,	 3.759422 
0.353217,	 0.003776,	 0.006633,	 1906.976333,	 0.484743,	 698.480294,	 1332.919965,	 507.162382,	 3.760090 
0.358569,	 0.003789,	 0.006626,	 1907.120897,	 0.661016,	 698.267890,	 1331.089994,	 507.085263,	 3.760947 
0.363921,	 0.003801,	 0.006618,	 1907.287784,	 0.815978,	 698.023304,	 1328.999143,	 506.996445,	 3.761936 
0.369273,	 0.003813,	 0.006609,	 1907.469421,	 0.920358,	 697.757525,	 1326.681098,	 506.899914,	 3.763010 
0.374625,	 0.003825,	 0.006599,	 1907.669803,	 0.958647,	 697.477417,	 1324.192295,	 506.798159,	 3.764161 
0.379976,	 0.003836,	 0.006590,	 1907.883657,	 0.922774,	 697.192071,	 1321.725332,	 506.694480,	 3.765354 