TITLE = "Final State"
VARIABLES = "X", "Y", "rho", "u", "v", "T", "p", "c", "M"
ZONE I=101, J=51, DATAPACKING=POINT
0.000000,	 0.000000,	 0.044552,	 1532.898434,	 -0.002580,	 1188.339377,	 15231.173766,	 661.515764,	 2.317252 
0.004140,	 0.000000,	 0.044551,	 1532.897653,	 0.000144,	 1188.339451,	 15230.906198,	 661.515784,	 2.317250 
0.008280,	 0.000000,	 0.044550,	 1532.899805,	 0.000896,	 1188.334705,	 15230.706769,	 661.514463,	 2.317258 
0.012421,	 0.000000,	 0.044550,	 1532.900744,	 -0.000387,	 1188.332368,	 15230.537406,	 661.513813,	 2.317262 
0.016561,	 0.000000,	 0.044550,	 1532.900226,	 -0.000045,	 1188.332371,	 15230.645468,	 661.513814,	 2.317261 
0.020701,	 0.000000,	 0.044550,	 1532.900726,	 -0.000062,	 1188.332458,	 15230.700425,	 661.513838,	 2.317262 
0.024841,	 0.000000,	 0.044551,	 1532.904554,	 -0.001000,	 1188.333349,	 15230.761509,	 661.514086,	 2.317267 
0.028981,	 0.000000,	 0.044554,	 1532.892976,	 -0.005830,	 1188.345790,	 15232.112947,	 661.517549,	 2.317237 
0.033122,	 0.000000,	 0.044546,	 1532.946087,	 -0.001855,	 1188.279400,	 15228.513744,	 661.499069,	 2.317382 
0.037262,	 0.000000,	 0.044511,	 1533.134770,	 0.025725,	 1188.059477,	 15213.725850,	 661.437853,	 2.317882 
0.041402,	 0.000000,	 0.044466,	 1533.199073,	 -0.020724,	 1187.736205,	 15194.291803,	 661.347858,	 2.318294 
0.045542,	 0.000000,	 0.044722,	 1531.476280,	 -0.412168,	 1189.601419,	 15305.609815,	 661.866942,	 2.313873 
0.049682,	 0.000000,	 0.045445,	 1526.764428,	 -0.631740,	 1195.265357,	 15627.295841,	 663.440714,	 2.301283 
0.053823,	 0.000000,	 0.045758,	 1523.827010,	 -1.217211,	 1198.807197,	 15781.569467,	 664.422949,	 2.293460 
0.057963,	 0.000000,	 0.044770,	 1529.937707,	 -0.645045,	 1191.830928,	 15350.893586,	 662.486876,	 2.309386 
0.062103,	 0.000000,	 0.041698,	 1550.682478,	 2.830931,	 1167.626886,	 14007.144989,	 655.725385,	 2.364839 
0.066243,	 0.000000,	 0.037246,	 1581.349295,	 1.665358,	 1131.215140,	 12121.474590,	 645.420207,	 2.450109 
0.070383,	 0.000000,	 0.032849,	 1613.553608,	 0.744398,	 1092.161637,	 10321.272042,	 634.181271,	 2.544310 
0.074524,	 0.000000,	 0.028917,	 1644.473552,	 0.878996,	 1053.888395,	 8767.496006,	 622.970189,	 2.639731 
0.078664,	 0.000000,	 0.025476,	 1673.586620,	 0.517479,	 1017.139615,	 7454.848929,	 612.012424,	 2.734563 
0.082804,	 0.000000,	 0.022570,	 1700.010788,	 0.372666,	 983.205346,	 6384.154822,	 601.716706,	 2.825268 
0.086944,	 0.000000,	 0.020101,	 1724.083265,	 0.384921,	 951.802618,	 5504.092201,	 592.029573,	 2.912157 
0.091084,	 0.000000,	 0.017994,	 1746.039308,	 0.295491,	 922.736374,	 4776.852147,	 582.919755,	 2.995334 
0.095225,	 0.000000,	 0.016196,	 1766.087571,	 0.260789,	 895.909183,	 4174.362861,	 574.383489,	 3.074753 
0.099365,	 0.000000,	 0.014648,	 1784.461126,	 0.246066,	 871.049390,	 3670.649357,	 566.358397,	 3.150763 
0.103505,	 0.000000,	 0.013308,	 1801.346431,	 0.203713,	 847.959145,	 3246.566852,	 558.801313,	 3.223590 
0.107645,	 0.000000,	 0.012144,	 1816.898923,	 0.167680,	 826.498054,	 2887.682395,	 551.684613,	 3.293365 
0.111785,	 0.000000,	 0.011128,	 1831.252876,	 0.130242,	 806.495394,	 2581.844421,	 544.967872,	 3.360295 
0.115926,	 0.000000,	 0.010239,	 1844.504218,	 0.089960,	 787.857257,	 2320.757839,	 538.633950,	 3.424411 
0.120066,	 0.000000,	 0.009469,	 1856.613279,	 0.126721,	 770.718617,	 2099.617584,	 532.743155,	 3.485006 
0.124206,	 0.000000,	 0.008797,	 1867.715790,	 0.140774,	 754.930389,	 1910.542246,	 527.258279,	 3.542317 
0.128346,	 0.000000,	 0.008205,	 1877.944655,	 0.157627,	 740.322360,	 1747.508298,	 522.132092,	 3.596685 
0.132486,	 0.000000,	 0.007682,	 1887.376740,	 0.205537,	 726.798369,	 1606.304067,	 517.341033,	 3.648226 
0.136627,	 0.000000,	 0.007222,	 1896.035928,	 0.312142,	 714.331231,	 1484.088821,	 512.884734,	 3.696807 
0.140767,	 0.000000,	 0.006821,	 1903.863875,	 0.523909,	 703.018377,	 1379.496447,	 508.807252,	 3.741818 
0.144907,	 0.000000,	 0.006478,	 1910.797736,	 0.986692,	 692.972966,	 1291.427636,	 505.159006,	 3.782567 
0.149047,	 0.000000,	 0.006189,	 1916.654658,	 1.638641,	 684.477379,	 1218.736690,	 502.052927,	 3.817636 
0.153187,	 0.000000,	 0.005940,	 1921.165129,	 1.679520,	 677.934461,	 1158.485485,	 499.647604,	 3.845042 
0.157328,	 0.000000,	 0.005739,	 1924.105143,	 0.082137,	 673.675516,	 1112.210955,	 498.075679,	 3.863078 
0.161468,	 0.000000,	 0.005658,	 1925.095185,	 -2.071597,	 672.046263,	 1093.962334,	 497.473028,	 3.869750 
0.165608,	 0.000000,	 0.005741,	 1923.660461,	 -2.668807,	 672.603076,	 1110.915011,	 497.679072,	 3.865267 
0.169748,	 0.000000,	 0.005943,	 1920.533564,	 -2.388784,	 677.057330,	 1157.683794,	 499.324270,	 3.846268 
0.173888,	 0.000000,	 0.006194,	 1915.745757,	 -1.688960,	 684.932953,	 1220.543176,	 502.219977,	 3.814557 
0.178029,	 0.000000,	 0.006360,	 1911.691665,	 -2.383271,	 690.184438,	 1262.781030,	 504.141600,	 3.791977 
0.182169,	 0.000000,	 0.006485,	 1908.706958,	 -2.822056,	 694.981688,	 1296.591680,	 505.890628,	 3.772968 
0.186309,	 0.000000,	 0.006554,	 1907.108952,	 -2.446756,	 698.220261,	 1316.445286,	 507.067969,	 3.761055 
0.190449,	 0.000000,	 0.006569,	 1907.119270,	 -1.985735,	 698.391382,	 1319.936160,	 507.130101,	 3.760613 
0.194589,	 0.000000,	 0.006549,	 1908.251300,	 -1.138616,	 696.758670,	 1312.766380,	 506.536966,	 3.767251 
0.198730,	 0.000000,	 0.006519,	 1909.254039,	 -0.357544,	 695.289923,	 1304.038694,	 506.002801,	 3.773209 
0.202870,	 0.000000,	 0.006489,	 1909.738940,	 0.039866,	 694.566050,	 1296.576348,	 505.739331,	 3.776133 
0.207010,	 0.000000,	 0.006465,	 1910.048591,	 -0.093183,	 694.113256,	 1290.927912,	 505.574456,	 3.777977 
0.211150,	 0.000000,	 0.006466,	 1910.091694,	 -0.197802,	 693.934113,	 1290.792146,	 505.509210,	 3.778550 
0.215290,	 0.000000,	 0.006483,	 1909.940444,	 -0.206637,	 694.002527,	 1294.442248,	 505.534128,	 3.778064 
0.219431,	 0.000000,	 0.006500,	 1909.705401,	 -0.193448,	 694.385857,	 1298.526158,	 505.673724,	 3.776557 
0.223571,	 0.000000,	 0.006509,	 1909.529082,	 -0.252381,	 694.787707,	 1300.981917,	 505.820022,	 3.775116 
0.227711,	 0.000000,	 0.006514,	 1909.422537,	 -0.257807,	 695.007629,	 1302.408217,	 505.900070,	 3.774308 
0.231851,	 0.000000,	 0.006514,	 1909.407863,	 -0.248179,	 695.026371,	 1302.563528,	 505.906891,	 3.774228 
0.235991,	 0.000000,	 0.006512,	 1909.449565,	 -0.205032,	 694.963452,	 1302.018466,	 505.883991,	 3.774481 
0.240132,	 0.000000,	 0.006508,	 1909.539950,	 -0.155587,	 694.830153,	 1300.874416,	 505.835473,	 3.775022 
0.244272,	 0.000000,	 0.006502,	 1909.657018,	 -0.101469,	 694.658324,	 1299.405332,	 505.772923,	 3.775720 
0.248412,	 0.000000,	 0.006496,	 1909.782436,	 -0.053040,	 694.474441,	 1297.835778,	 505.705978,	 3.776468 
0.252552,	 0.000000,	 0.006490,	 1909.908494,	 -0.015854,	 694.289696,	 1296.262621,	 505.638708,	 3.777220 
0.256692,	 0.000000,	 0.006484,	 1910.026204,	 0.035912,	 694.117224,	 1294.762802,	 505.575901,	 3.777922 
0.260833,	 0.000000,	 0.006478,	 1910.111905,	 0.106324,	 693.971330,	 1293.418852,	 505.522765,	 3.778488 
0.264973,	 0.000000,	 0.006475,	 1910.143813,	 0.065513,	 693.865587,	 1292.537139,	 505.484249,	 3.778839 
0.269113,	 0.000000,	 0.006475,	 1910.118844,	 -0.024053,	 693.803890,	 1292.414774,	 505.461776,	 3.778958 
0.273253,	 0.000000,	 0.006479,	 1910.029885,	 -0.101601,	 693.800359,	 1293.307755,	 505.460490,	 3.778792 
0.277393,	 0.000000,	 0.006489,	 1909.888650,	 -0.149727,	 694.003250,	 1295.539725,	 505.534391,	 3.777960 
0.281534,	 0.000000,	 0.006499,	 1909.707353,	 -0.136167,	 694.400805,	 1298.401574,	 505.679166,	 3.776520 
0.285674,	 0.000000,	 0.006505,	 1909.581938,	 -0.194984,	 694.699730,	 1300.169076,	 505.787997,	 3.775459 
0.289814,	 0.000000,	 0.006508,	 1909.522435,	 -0.208111,	 694.840050,	 1300.997828,	 505.839075,	 3.774960 
0.293954,	 0.000000,	 0.006508,	 1909.519311,	 -0.214416,	 694.841293,	 1301.024068,	 505.839528,	 3.774951 
0.298094,	 0.000000,	 0.006506,	 1909.571950,	 -0.189510,	 694.764172,	 1300.356089,	 505.811455,	 3.775264 
0.302235,	 0.000000,	 0.006502,	 1909.654984,	 -0.139589,	 694.642314,	 1299.313094,	 505.767095,	 3.775760 
0.306375,	 0.000000,	 0.006497,	 1909.757911,	 -0.093383,	 694.491720,	 1298.026198,	 505.712269,	 3.776373 
0.310515,	 0.000000,	 0.006491,	 1909.874220,	 -0.059195,	 694.321885,	 1296.576495,	 505.650430,	 3.777064 
0.314655,	 0.000000,	 0.006485,	 1909.998657,	 -0.036495,	 694.140518,	 1295.029604,	 505.584384,	 3.777804 
0.318795,	 0.000000,	 0.006479,	 1910.127192,	 -0.023119,	 693.953364,	 1293.434983,	 505.516222,	 3.778568 
0.322936,	 0.000000,	 0.006472,	 1910.258125,	 0.001815,	 693.762824,	 1291.813780,	 505.446817,	 3.779345 
0.327076,	 0.000000,	 0.006466,	 1910.380077,	 0.032565,	 693.585229,	 1290.305054,	 505.382118,	 3.780071 
0.331216,	 0.000000,	 0.006461,	 1910.482462,	 0.065948,	 693.435997,	 1288.914693,	 505.327746,	 3.780680 
0.335356,	 0.000000,	 0.006456,	 1910.556316,	 0.090849,	 693.308772,	 1287.688470,	 505.281388,	 3.781173 
0.339496,	 0.000000,	 0.006454,	 1910.575371,	 0.043364,	 693.227274,	 1287.112017,	 505.251689,	 3.781433 
0.343637,	 0.000000,	 0.006455,	 1910.547967,	 -0.028347,	 693.178830,	 1287.222679,	 505.234035,	 3.781511 
0.347777,	 0.000000,	 0.006460,	 1910.475964,	 -0.079230,	 693.214606,	 1288.307573,	 505.247073,	 3.781271 
0.351917,	 0.000000,	 0.006467,	 1910.372243,	 -0.088110,	 693.401478,	 1289.992197,	 505.315169,	 3.780556 
0.356057,	 0.000000,	 0.006471,	 1910.287686,	 -0.131489,	 693.633434,	 1291.276894,	 505.399680,	 3.779756 
0.360197,	 0.000000,	 0.006473,	 1910.237358,	 -0.154237,	 693.776486,	 1292.028360,	 505.451793,	 3.779267 
0.364338,	 0.000000,	 0.006474,	 1910.226045,	 -0.164541,	 693.804293,	 1292.186606,	 505.461923,	 3.779169 
0.368478,	 0.000000,	 0.006473,	 1910.248826,	 -0.129177,	 693.770662,	 1291.900338,	 505.449672,	 3.779306 
0.372618,	 0.000000,	 0.006471,	 1910.286862,	 -0.085402,	 693.715085,	 1291.427397,	 505.429426,	 3.779532 
0.376758,	 0.000000,	 0.006468,	 1910.338130,	 -0.059864,	 693.640473,	 1290.792628,	 505.402245,	 3.779837 
0.380898,	 0.000000,	 0.006465,	 1910.407009,	 -0.056504,	 693.540303,	 1289.955628,	 505.365750,	 3.780246 
0.385039,	 0.000000,	 0.006463,	 1910.507614,	 -0.067155,	 693.394787,	 1289.182033,	 505.312730,	 3.780842 
0.389179,	 0.000000,	 0.006461,	 1910.631911,	 0.021876,	 693.273127,	 1288.698352,	 505.268399,	 3.781420 
0.393319,	 0.000000,	 0.006456,	 1910.786699,	 0.208551,	 693.106564,	 1287.431749,	 505.207698,	 3.782181 
0.397459,	 0.000000,	 0.006443,	 1911.073695,	 0.356701,	 692.690005,	 1284.070549,	 505.055859,	 3.783886 
0.401599,	 0.000000,	 0.006421,	 1911.546649,	 0.436448,	 692.003799,	 1278.384960,	 504.805634,	 3.786698 
0.405740,	 0.000000,	 0.006390,	 1912.204222,	 0.394234,	 691.049480,	 1270.334947,	 504.457433,	 3.790616 
0.409880,	 0.000000,	 0.006350,	 1913.010595,	 0.291702,	 689.862442,	 1260.334097,	 504.023986,	 3.795475 
0.414020,	 0.000000,	 0.006307,	 1913.911263,	 0.217161,	 688.536495,	 1249.262953,	 503.539374,	 3.800917 
0.000000,	 0.000655,	 0.044552,	 1532.900961,	 -0.003337,	 1188.334558,	 15231.358798,	 661.514422,	 2.317260 
0.004140,	 0.000663,	 0.044551,	 1532.899738,	 0.000264,	 1188.334879,	 15230.845294,	 661.514512,	 2.317258 
0.008280,	 0.000673,	 0.044550,	 1532.900295,	 0.001255,	 1188.333116,	 15230.693512,	 661.514021,	 2.317260 
0.012421,	 0.000685,	 0.044550,	 1532.900724,	 0.000025,	 1188.332413,	 15230.550146,	 661.513825,	 2.317262 
0.016561,	 0.000697,	 0.044550,	 1532.901134,	 -0.000158,	 1188.332455,	 15230.650504,	 661.513837,	 2.317262 
0.020701,	 0.000710,	 0.044550,	 1532.902818,	 -0.000253,	 1188.332417,	 15230.704602,	 661.513826,	 2.317265 
0.024841,	 0.000724,	 0.044551,	 1532.908464,	 -0.002706,	 1188.334557,	 15230.805264,	 661.514422,	 2.317271 
0.028981,	 0.000738,	 0.044554,	 1532.898198,	 0.000207,	 1188.343679,	 15232.109621,	 661.516961,	 2.317247 
0.033122,	 0.000752,	 0.044546,	 1532.954714,	 0.038142,	 1188.270133,	 15228.306770,	 661.496490,	 2.317404 
0.037262,	 0.000767,	 0.044513,	 1533.151589,	 0.097717,	 1188.032338,	 15214.168812,	 661.430298,	 2.317934 
0.041402,	 0.000782,	 0.044493,	 1533.238798,	 -0.164083,	 1187.963443,	 15206.267693,	 661.411119,	 2.318133 
0.045542,	 0.000797,	 0.044762,	 1531.471996,	 -1.543314,	 1189.994531,	 15324.490974,	 661.976293,	 2.313486 
0.049682,	 0.000812,	 0.045464,	 1526.919467,	 -2.239872,	 1195.254013,	 15633.455282,	 663.437566,	 2.301529 
0.053823,	 0.000828,	 0.045839,	 1524.643481,	 -0.446146,	 1197.928719,	 15797.774870,	 664.179462,	 2.295529 
0.057963,	 0.000843,	 0.044651,	 1531.926847,	 5.585284,	 1189.477382,	 15279.864743,	 661.832436,	 2.314690 
0.062103,	 0.000859,	 0.041436,	 1552.452493,	 14.058816,	 1165.387853,	 13892.572744,	 655.096376,	 2.369905 
0.066243,	 0.000875,	 0.037148,	 1581.896000,	 17.934276,	 1130.274783,	 12079.623060,	 645.151888,	 2.452132 
0.070383,	 0.000891,	 0.032786,	 1613.844000,	 19.056873,	 1091.456117,	 10294.998416,	 633.976403,	 2.545767 
0.074524,	 0.000907,	 0.028860,	 1644.735562,	 20.151763,	 1053.170186,	 8744.407666,	 622.757880,	 2.641250 
0.078664,	 0.000923,	 0.025449,	 1673.603021,	 20.306684,	 1016.685575,	 7443.712781,	 611.875811,	 2.735402 
0.082804,	 0.000939,	 0.022547,	 1699.980695,	 20.192132,	 982.759917,	 6374.791819,	 601.580390,	 2.826057 
0.086944,	 0.000955,	 0.020082,	 1724.058645,	 20.073574,	 951.381588,	 5496.545308,	 591.898616,	 2.912957 
0.091084,	 0.000971,	 0.017981,	 1746.030685,	 19.797679,	 922.374585,	 4771.583792,	 582.805468,	 2.996099 
0.095225,	 0.000987,	 0.016185,	 1766.093508,	 19.492387,	 895.557844,	 4169.894998,	 574.270853,	 3.075554 
0.099365,	 0.001002,	 0.014639,	 1784.476801,	 19.192106,	 870.720459,	 3667.068542,	 566.251451,	 3.151568 
0.103505,	 0.001018,	 0.013302,	 1801.373512,	 18.849196,	 847.664998,	 3243.928562,	 558.704384,	 3.224374 
0.107645,	 0.001034,	 0.012140,	 1816.937495,	 18.484281,	 826.229636,	 2885.682974,	 551.595022,	 3.294141 
0.111785,	 0.001049,	 0.011126,	 1831.306616,	 18.104014,	 806.270934,	 2580.689599,	 544.892030,	 3.361026 
0.115926,	 0.001065,	 0.010239,	 1844.567319,	 17.605855,	 787.722958,	 2320.379142,	 538.588040,	 3.424976 
0.120066,	 0.001080,	 0.009469,	 1856.688289,	 17.042553,	 770.673021,	 2099.408244,	 532.727396,	 3.485397 
0.124206,	 0.001096,	 0.008796,	 1867.799709,	 16.479235,	 754.947163,	 1910.451575,	 527.264136,	 3.542574 
0.128346,	 0.001111,	 0.008204,	 1878.037894,	 15.958831,	 740.363947,	 1747.428256,	 522.146757,	 3.596892 
0.132486,	 0.001125,	 0.007682,	 1887.468804,	 15.453152,	 726.853782,	 1606.331575,	 517.360754,	 3.648387 
0.136627,	 0.001140,	 0.007222,	 1896.126849,	 14.935212,	 714.392030,	 1484.220553,	 512.906560,	 3.696942 
0.140767,	 0.001155,	 0.006817,	 1903.968748,	 14.329591,	 703.060513,	 1378.816272,	 508.822499,	 3.742017 
0.144907,	 0.001169,	 0.006462,	 1910.931586,	 13.386107,	 692.966555,	 1288.235553,	 505.156669,	 3.782942 
0.149047,	 0.001183,	 0.006164,	 1916.858496,	 11.861184,	 684.353896,	 1213.682032,	 502.007639,	 3.818458 
0.153187,	 0.001197,	 0.005943,	 1921.536838,	 9.380172,	 677.549145,	 1158.445480,	 499.505592,	 3.846923 
0.157328,	 0.001211,	 0.005809,	 1924.699309,	 5.105596,	 672.951296,	 1124.561461,	 497.807884,	 3.866363 
0.161468,	 0.001224,	 0.005763,	 1925.699254,	 -1.046529,	 671.382189,	 1113.224842,	 497.227181,	 3.872877 
0.165608,	 0.001237,	 0.005823,	 1924.163614,	 -6.670917,	 673.988855,	 1129.184251,	 498.191497,	 3.862320 
0.169748,	 0.001250,	 0.005979,	 1920.690938,	 -10.500380,	 678.931058,	 1167.935375,	 500.014722,	 3.841326 
0.173888,	 0.001263,	 0.006195,	 1916.157557,	 -10.898919,	 685.436792,	 1221.700005,	 502.404661,	 3.814034 
0.178029,	 0.001275,	 0.006380,	 1912.341287,	 -8.923971,	 691.611628,	 1269.511265,	 504.662572,	 3.789388 
0.182169,	 0.001287,	 0.006518,	 1909.567530,	 -6.418187,	 695.419859,	 1304.055856,	 506.050080,	 3.773497 
0.186309,	 0.001299,	 0.006593,	 1908.150802,	 -3.369077,	 697.020004,	 1322.070590,	 506.631950,	 3.766351 
0.190449,	 0.001310,	 0.006600,	 1907.960113,	 -0.561754,	 697.207751,	 1323.852393,	 506.700178,	 3.765462 
0.194589,	 0.001321,	 0.006564,	 1908.529803,	 1.121810,	 696.377134,	 1315.121468,	 506.398260,	 3.768832 
0.198730,	 0.001332,	 0.006523,	 1909.299416,	 1.504013,	 695.216319,	 1304.686882,	 505.976018,	 3.773499 
0.202870,	 0.001343,	 0.006495,	 1909.863050,	 1.221915,	 694.350789,	 1297.478209,	 505.660955,	 3.776964 
0.207010,	 0.001353,	 0.006478,	 1910.205294,	 0.467036,	 693.851134,	 1293.161187,	 505.478985,	 3.779001 
0.211150,	 0.001362,	 0.006476,	 1910.241521,	 -0.353292,	 693.860886,	 1292.806491,	 505.482537,	 3.779046 
0.215290,	 0.001371,	 0.006486,	 1910.050045,	 -0.780151,	 694.215879,	 1295.473001,	 505.611828,	 3.777701 
0.219431,	 0.001380,	 0.006501,	 1909.786761,	 -0.739092,	 694.617373,	 1299.066474,	 505.758015,	 3.776088 
0.223571,	 0.001389,	 0.006511,	 1909.570324,	 -0.584468,	 694.900090,	 1301.644962,	 505.860929,	 3.774892 
0.227711,	 0.001397,	 0.006516,	 1909.450468,	 -0.368746,	 695.041491,	 1302.897999,	 505.912394,	 3.774271 
0.231851,	 0.001405,	 0.006517,	 1909.438899,	 -0.153737,	 695.059518,	 1303.090178,	 505.918955,	 3.774199 
0.235991,	 0.001412,	 0.006514,	 1909.502208,	 0.018716,	 694.968733,	 1302.433463,	 505.885913,	 3.774571 
0.240132,	 0.001419,	 0.006510,	 1909.610449,	 0.153668,	 694.804410,	 1301.192384,	 505.826102,	 3.775231 
0.244272,	 0.001426,	 0.006504,	 1909.736470,	 0.245401,	 694.597946,	 1299.620821,	 505.750943,	 3.776041 
0.248412,	 0.001433,	 0.006497,	 1909.863110,	 0.290211,	 694.383452,	 1297.958443,	 505.672848,	 3.776875 
0.252552,	 0.001439,	 0.006490,	 1909.991456,	 0.310420,	 694.175294,	 1296.183608,	 505.597049,	 3.777695 
0.256692,	 0.001446,	 0.006483,	 1910.112513,	 0.291661,	 693.992212,	 1294.454568,	 505.530371,	 3.778433 
0.260833,	 0.001451,	 0.006478,	 1910.205913,	 0.212711,	 693.866150,	 1293.216899,	 505.484454,	 3.778961 
0.264973,	 0.001457,	 0.006476,	 1910.246534,	 0.050183,	 693.834892,	 1292.761741,	 505.473069,	 3.779126 
0.269113,	 0.001462,	 0.006477,	 1910.226616,	 -0.137120,	 693.906037,	 1293.098342,	 505.498983,	 3.778893 
0.273253,	 0.001467,	 0.006482,	 1910.137378,	 -0.355293,	 694.093745,	 1294.367517,	 505.567350,	 3.778206 
0.277393,	 0.001472,	 0.006490,	 1909.982869,	 -0.540277,	 694.323225,	 1296.406662,	 505.650918,	 3.777276 
0.281534,	 0.001477,	 0.006500,	 1909.788231,	 -0.553358,	 694.587102,	 1298.883100,	 505.746995,	 3.776173 
0.285674,	 0.001482,	 0.006507,	 1909.631260,	 -0.441625,	 694.798279,	 1300.673418,	 505.823871,	 3.775289 
0.289814,	 0.001485,	 0.006510,	 1909.550102,	 -0.276942,	 694.891467,	 1301.464757,	 505.857791,	 3.774875 
0.293954,	 0.001489,	 0.006510,	 1909.549225,	 -0.109252,	 694.891831,	 1301.500081,	 505.857923,	 3.774873 
0.298094,	 0.001493,	 0.006508,	 1909.617835,	 0.049334,	 694.791779,	 1300.776920,	 505.821505,	 3.775280 
0.302235,	 0.001497,	 0.006503,	 1909.720552,	 0.159165,	 694.638396,	 1299.628929,	 505.765669,	 3.775900 
0.306375,	 0.001500,	 0.006498,	 1909.833650,	 0.229468,	 694.460610,	 1298.246005,	 505.700942,	 3.776607 
0.310515,	 0.001504,	 0.006492,	 1909.952940,	 0.274621,	 694.270998,	 1296.730539,	 505.631900,	 3.777359 
0.314655,	 0.001507,	 0.006486,	 1910.077639,	 0.301152,	 694.076185,	 1295.152990,	 505.560954,	 3.778135 
0.318795,	 0.001510,	 0.006480,	 1910.207041,	 0.322184,	 693.873761,	 1293.464433,	 505.487227,	 3.778942 
0.322936,	 0.001512,	 0.006473,	 1910.338792,	 0.323322,	 693.666311,	 1291.692674,	 505.411658,	 3.779768 
0.327076,	 0.001514,	 0.006466,	 1910.462545,	 0.299812,	 693.478239,	 1290.027284,	 505.343137,	 3.780525 
0.331216,	 0.001517,	 0.006460,	 1910.569946,	 0.262765,	 693.322029,	 1288.609384,	 505.286219,	 3.781164 
0.335356,	 0.001519,	 0.006456,	 1910.647077,	 0.162665,	 693.219742,	 1287.640649,	 505.248944,	 3.781595 
0.339496,	 0.001521,	 0.006455,	 1910.674312,	 0.002369,	 693.206707,	 1287.363501,	 505.244194,	 3.781685 
0.343637,	 0.001523,	 0.006457,	 1910.649551,	 -0.157427,	 693.285823,	 1287.817394,	 505.273025,	 3.781420 
0.347777,	 0.001525,	 0.006461,	 1910.572642,	 -0.315841,	 693.430823,	 1288.907490,	 505.325861,	 3.780873 
0.351917,	 0.001527,	 0.006467,	 1910.460991,	 -0.367314,	 693.598746,	 1290.421992,	 505.387043,	 3.780194 
0.356057,	 0.001528,	 0.006472,	 1910.357733,	 -0.319547,	 693.736290,	 1291.747318,	 505.437151,	 3.779615 
0.360197,	 0.001529,	 0.006475,	 1910.290647,	 -0.211676,	 693.816619,	 1292.515081,	 505.466412,	 3.779263 
0.364338,	 0.001530,	 0.006476,	 1910.279808,	 -0.079732,	 693.826465,	 1292.639712,	 505.469999,	 3.779215 
0.368478,	 0.001531,	 0.006474,	 1910.313857,	 0.021314,	 693.771475,	 1292.234020,	 505.449968,	 3.779432 
0.372618,	 0.001532,	 0.006472,	 1910.361714,	 0.079353,	 693.690753,	 1291.640435,	 505.420562,	 3.779747 
0.376758,	 0.001533,	 0.006469,	 1910.417040,	 0.113044,	 693.607790,	 1290.958672,	 505.390338,	 3.780082 
0.380898,	 0.001534,	 0.006466,	 1910.483009,	 0.138086,	 693.523169,	 1290.207464,	 505.359508,	 3.780443 
0.385039,	 0.001535,	 0.006462,	 1910.547930,	 0.181033,	 693.436592,	 1289.207936,	 505.327963,	 3.780808 
0.389179,	 0.001535,	 0.006456,	 1910.632929,	 0.333586,	 693.283412,	 1287.595453,	 505.272146,	 3.781394 
0.393319,	 0.001535,	 0.006446,	 1910.805669,	 0.675248,	 693.003149,	 1285.072909,	 505.170007,	 3.782500 
0.397459,	 0.001536,	 0.006430,	 1911.115322,	 1.120915,	 692.553313,	 1281.158838,	 505.006025,	 3.784342 
0.401599,	 0.001536,	 0.006409,	 1911.569902,	 1.577823,	 691.892829,	 1275.652912,	 504.765156,	 3.787049 
0.405740,	 0.001536,	 0.006380,	 1912.179146,	 1.977687,	 691.007458,	 1268.355079,	 504.442095,	 3.790683 
0.409880,	 0.001537,	 0.006344,	 1912.944289,	 2.270646,	 689.903090,	 1259.188982,	 504.038835,	 3.795235 
0.414020,	 0.001537,	 0.006303,	 1913.819965,	 2.407208,	 688.637043,	 1248.695371,	 503.576139,	 3.800461 
0.000000,	 0.001311,	 0.044553,	 1532.900948,	 -0.002028,	 1188.331378,	 15231.487055,	 661.513537,	 2.317263 
0.004140,	 0.001325,	 0.044551,	 1532.900361,	 0.000145,	 1188.332551,	 15230.765929,	 661.513864,	 2.317261 
0.008280,	 0.001347,	 0.044550,	 1532.900503,	 0.000778,	 1188.333145,	 15230.690672,	 661.514029,	 2.317261 
0.012421,	 0.001370,	 0.044550,	 1532.900910,	 0.000393,	 1188.332505,	 15230.558185,	 661.513851,	 2.317262 
0.016561,	 0.001395,	 0.044550,	 1532.902259,	 -0.000294,	 1188.332285,	 15230.652421,	 661.513790,	 2.317264 
0.020701,	 0.001421,	 0.044550,	 1532.905595,	 -0.000327,	 1188.333027,	 15230.708985,	 661.513996,	 2.317269 
0.024841,	 0.001447,	 0.044551,	 1532.913314,	 -0.005475,	 1188.334198,	 15230.863263,	 661.514322,	 2.317279 
0.028981,	 0.001475,	 0.044553,	 1532.902636,	 0.004686,	 1188.338292,	 15231.808898,	 661.515462,	 2.317259 
0.033122,	 0.001504,	 0.044544,	 1532.969462,	 0.079929,	 1188.256779,	 15227.369987,	 661.492773,	 2.317439 
0.037262,	 0.001533,	 0.044513,	 1533.138938,	 0.183339,	 1188.045616,	 15214.115026,	 661.433994,	 2.317902 
0.041402,	 0.001563,	 0.044518,	 1533.019837,	 -0.390003,	 1188.182975,	 15217.765439,	 661.472230,	 2.317588 
0.045542,	 0.001593,	 0.044821,	 1531.061429,	 -2.810090,	 1190.458575,	 15350.717880,	 662.105350,	 2.312418 
0.049682,	 0.001624,	 0.045475,	 1526.973207,	 -3.923565,	 1195.206581,	 15636.871655,	 663.424402,	 2.301661 
0.053823,	 0.001655,	 0.045654,	 1525.617071,	 0.531233,	 1196.813831,	 15719.334717,	 663.870321,	 2.298065 
0.057963,	 0.001686,	 0.044284,	 1533.908507,	 12.344852,	 1187.162006,	 15124.858665,	 661.187978,	 2.320003 
0.062103,	 0.001718,	 0.041131,	 1554.082419,	 25.629470,	 1163.335978,	 13765.831168,	 654.519415,	 2.374710 
0.066243,	 0.001749,	 0.036990,	 1582.450084,	 34.439043,	 1129.344609,	 12018.264291,	 644.886366,	 2.454424 
0.070383,	 0.001781,	 0.032720,	 1613.978058,	 38.175685,	 1090.954448,	 10269.482895,	 633.830688,	 2.547099 
0.074524,	 0.001813,	 0.028809,	 1644.793507,	 39.811854,	 1052.696932,	 8725.022848,	 622.617943,	 2.642512 
0.078664,	 0.001845,	 0.025422,	 1673.454099,	 40.362702,	 1016.425345,	 7433.966493,	 611.797498,	 2.736103 
0.082804,	 0.001877,	 0.022526,	 1699.799614,	 40.295249,	 982.522754,	 6367.291766,	 601.507798,	 2.826692 
0.086944,	 0.001909,	 0.020065,	 1723.830512,	 39.947748,	 951.158233,	 5490.657398,	 591.829132,	 2.913499 
0.091084,	 0.001941,	 0.017970,	 1745.753273,	 39.470769,	 922.189036,	 4767.478477,	 582.746845,	 2.996497 
0.095225,	 0.001973,	 0.016175,	 1765.792724,	 38.889658,	 895.381154,	 4166.609589,	 574.214200,	 3.075892 
0.099365,	 0.002005,	 0.014631,	 1784.153009,	 38.262240,	 870.554859,	 3664.487415,	 566.197602,	 3.151838 
0.103505,	 0.002036,	 0.013297,	 1801.023872,	 37.599864,	 847.520696,	 3242.086284,	 558.656826,	 3.224549 
0.107645,	 0.002068,	 0.012136,	 1816.564742,	 36.886536,	 826.109034,	 2884.422468,	 551.554763,	 3.294214 
0.111785,	 0.002099,	 0.011124,	 1830.901429,	 36.118398,	 806.232295,	 2580.237250,	 544.878973,	 3.360852 
0.115926,	 0.002130,	 0.010241,	 1844.102690,	 35.175334,	 787.821425,	 2321.218897,	 538.621701,	 3.424367 
0.120066,	 0.002161,	 0.009473,	 1856.192330,	 34.069460,	 770.823063,	 2100.822835,	 532.779252,	 3.484567 
0.124206,	 0.002191,	 0.008801,	 1867.297514,	 32.965044,	 755.100964,	 1911.927625,	 527.317842,	 3.541675 
0.128346,	 0.002221,	 0.008210,	 1877.525204,	 31.950139,	 740.543215,	 1749.065924,	 522.209968,	 3.595866 
0.132486,	 0.002251,	 0.007687,	 1886.909977,	 30.935576,	 727.124220,	 1607.981311,	 517.456991,	 3.646996 
0.136627,	 0.002280,	 0.007223,	 1895.472747,	 29.653854,	 714.838160,	 1485.377593,	 513.066687,	 3.694850 
0.140767,	 0.002309,	 0.006819,	 1903.165682,	 27.892701,	 703.772873,	 1380.746874,	 509.080210,	 3.738841 
0.144907,	 0.002338,	 0.006481,	 1909.925050,	 25.290660,	 694.026314,	 1294.103942,	 505.542791,	 3.778300 
0.149047,	 0.002366,	 0.006210,	 1915.628305,	 21.373331,	 685.779555,	 1225.144256,	 502.530263,	 3.812203 
0.153187,	 0.002394,	 0.006012,	 1920.024317,	 15.806279,	 679.415022,	 1175.031446,	 500.192904,	 3.838698 
0.157328,	 0.002422,	 0.005897,	 1922.794233,	 8.429828,	 675.415925,	 1145.928404,	 498.718641,	 3.855506 
0.161468,	 0.002448,	 0.005865,	 1923.674201,	 -0.606833,	 674.367324,	 1137.922133,	 498.331354,	 3.860231 
0.165608,	 0.002475,	 0.005908,	 1922.436684,	 -9.926767,	 676.358728,	 1149.650387,	 499.066597,	 3.852116 
0.169748,	 0.002501,	 0.006021,	 1919.622303,	 -16.434075,	 680.451784,	 1178.718999,	 500.574396,	 3.834980 
0.173888,	 0.002526,	 0.006179,	 1916.383116,	 -18.089285,	 684.978213,	 1217.694668,	 502.236570,	 3.815868 
0.178029,	 0.002550,	 0.006337,	 1913.221486,	 -15.207153,	 689.355566,	 1256.711971,	 503.838786,	 3.797409 
0.182169,	 0.002575,	 0.006455,	 1910.683008,	 -10.010077,	 693.062270,	 1286.982435,	 505.191555,	 3.782148 
0.186309,	 0.002598,	 0.006522,	 1909.225741,	 -4.534004,	 695.199424,	 1304.512612,	 505.969869,	 3.773409 
0.190449,	 0.002621,	 0.006548,	 1908.668510,	 -0.219901,	 696.005334,	 1311.200171,	 506.263057,	 3.770112 
0.194589,	 0.002643,	 0.006544,	 1908.724546,	 2.020560,	 695.915313,	 1310.152836,	 506.230316,	 3.770469 
0.198730,	 0.002664,	 0.006525,	 1909.192087,	 2.475479,	 695.271693,	 1305.128369,	 505.996168,	 3.773139 
0.202870,	 0.002685,	 0.006507,	 1909.649231,	 1.886995,	 694.627780,	 1300.315010,	 505.761804,	 3.775790 
0.207010,	 0.002705,	 0.006495,	 1909.870058,	 0.793989,	 694.309874,	 1297.268381,	 505.646056,	 3.777089 
0.211150,	 0.002724,	 0.006489,	 1909.958495,	 -0.317245,	 694.201845,	 1295.983597,	 505.606717,	 3.777558 
0.215290,	 0.002743,	 0.006490,	 1909.913000,	 -1.024567,	 694.267597,	 1296.377933,	 505.630661,	 3.777289 
0.219431,	 0.002760,	 0.006498,	 1909.735598,	 -1.163928,	 694.481408,	 1298.331782,	 505.708514,	 3.776357 
0.223571,	 0.002777,	 0.006507,	 1909.519564,	 -0.887999,	 694.751374,	 1300.605085,	 505.806797,	 3.775196 
0.227711,	 0.002794,	 0.006511,	 1909.413569,	 -0.509533,	 694.906071,	 1301.652209,	 505.863106,	 3.774566 
0.231851,	 0.002809,	 0.006512,	 1909.379090,	 -0.161006,	 694.951443,	 1301.958483,	 505.879620,	 3.774374 
0.235991,	 0.002824,	 0.006510,	 1909.414171,	 0.149067,	 694.896426,	 1301.520997,	 505.859596,	 3.774593 
0.240132,	 0.002839,	 0.006507,	 1909.501595,	 0.386858,	 694.774132,	 1300.574156,	 505.815081,	 3.775098 
0.244272,	 0.002852,	 0.006502,	 1909.624432,	 0.538171,	 694.616541,	 1299.333046,	 505.757712,	 3.775769 
0.248412,	 0.002866,	 0.006496,	 1909.762000,	 0.607102,	 694.444190,	 1297.856714,	 505.694963,	 3.776510 
0.252552,	 0.002879,	 0.006490,	 1909.902896,	 0.580610,	 694.257744,	 1296.272606,	 505.627073,	 3.777296 
0.256692,	 0.002892,	 0.006485,	 1910.031454,	 0.461246,	 694.075496,	 1294.892491,	 505.560704,	 3.778046 
0.260833,	 0.002902,	 0.006481,	 1910.124309,	 0.253065,	 693.952747,	 1293.930410,	 505.515997,	 3.778564 
0.264973,	 0.002913,	 0.006480,	 1910.157244,	 -0.020215,	 693.919576,	 1293.640906,	 505.503915,	 3.778719 
0.269113,	 0.002924,	 0.006482,	 1910.129631,	 -0.324044,	 693.966831,	 1294.103762,	 505.521126,	 3.778536 
0.273253,	 0.002935,	 0.006486,	 1910.034626,	 -0.630814,	 694.094841,	 1295.227402,	 505.567749,	 3.778000 
0.277393,	 0.002945,	 0.006492,	 1909.871629,	 -0.834654,	 694.293129,	 1296.793015,	 505.639959,	 3.777138 
0.281534,	 0.002955,	 0.006499,	 1909.685184,	 -0.848087,	 694.510882,	 1298.478972,	 505.719245,	 3.776177 
0.285674,	 0.002964,	 0.006504,	 1909.556117,	 -0.638641,	 694.667403,	 1299.775187,	 505.776228,	 3.775496 
0.289814,	 0.002971,	 0.006506,	 1909.499658,	 -0.339075,	 694.747444,	 1300.460346,	 505.805366,	 3.775167 
0.293954,	 0.002978,	 0.006506,	 1909.493675,	 -0.051584,	 694.753795,	 1300.472833,	 505.807678,	 3.775138 