TITLE = "Final State"
VARIABLES = "X", "Y", "rho", "u", "v", "T", "p", "c", "M"
ZONE I=100, J=100, DATAPACKING=POINT
0.015000,	 0.007425,	 1.000000,	 1000.000000,	 0.000000,	 300.000000,	 86129.212707,	 347.247603,	 2.879789 
0.045000,	 0.007425,	 1.000000,	 1000.000000,	 0.000000,	 300.000000,	 86129.212707,	 347.247603,	 2.879789 
0.075000,	 0.007425,	 1.000000,	 1000.000000,	 0.000000,	 300.000000,	 86129.212707,	 347.247603,	 2.879789 
0.105000,	 0.007425,	 1.000000,	 1000.000000,	 0.000000,	 300.000000,	 86129.212707,	 347.247603,	 2.879789 
0.135000,	 0.007425,	 1.000000,	 1000.000000,	 0.000000,	 300.000000,	 86129.212707,	 347.247603,	 2.879789 
0.165000,	 0.007425,	 1.000000,	 1000.000000,	 0.000000,	 300.000000,	 86129.212707,	 347.247603,	 2.879789 
0.195000,	 0.007425,	 1.000000,	 1000.000000,	 0.000000,	 300.000000,	 86129.212707,	 347.247603,	 2.879789 
0.225000,	 0.007425,	 1.000000,	 1000.000000,	 0.000000,	 300.000000,	 86129.212707,	 347.247603,	 2.879789 
0.255000,	 0.007425,	 1.000000,	 1000.000000,	 0.000000,	 300.000000,	 86129.212707,	 347.247603,	 2.879789 
0.285000,	 0.007425,	 1.000000,	 1000.000000,	 0.000000,	 300.000000,	 86129.212707,	 347.247603,	 2.879789 
0.315000,	 0.007425,	 1.000000,	 1000.000000,	 0.000000,	 300.000000,	 86129.212707,	 347.247603,	 2.879789 
0.345000,	 0.007425,	 1.000000,	 1000.000000,	 0.000000,	 300.000000,	 86129.212707,	 347.247603,	 2.879789 
0.375000,	 0.007425,	 1.000000,	 1000.000000,	 0.000000,	 300.000000,	 86129.212707,	 347.247603,	 2.879789 
0.405000,	 0.007425,	 1.000000,	 1000.000000,	 0.000000,	 300.000000,	 86129.212707,	 347.247603,	 2.879789 
0.435000,	 0.007425,	 1.000000,	 1000.000000,	 0.000000,	 300.000000,	 86129.212707,	 347.247603,	 2.879789 
0.465000,	 0.007425,	 1.000000,	 1000.000000,	 0.000000,	 300.000000,	 86129.212707,	 347.247603,	 2.879789 
0.495000,	 0.007425,	 1.000000,	 1000.000000,	 0.000000,	 300.000000,	 86129.212707,	 347.247603,	 2.879789 
0.525000,	 0.007425,	 1.000000,	 1000.000000,	 0.000000,	 300.000000,	 86129.212707,	 347.247603,	 2.879789 
0.555000,	 0.007425,	 1.000000,	 1000.000000,	 0.000000,	 300.000000,	 86129.212707,	 347.247603,	 2.879789 
0.585000,	 0.007425,	 1.000000,	 1000.000000,	 0.000000,	 300.000000,	 86129.212707,	 347.247603,	 2.879789 
0.615000,	 0.007425,	 1.000000,	 1000.000000,	 0.000000,	 300.000000,	 86129.212707,	 347.247603,	 2.879789 
0.645000,	 0.007425,	 1.000000,	 1000.000000,	 0.000000,	 300.000000,	 86129.212707,	 347.247603,	 2.879789 
0.675000,	 0.007425,	 1.000000,	 1000.000000,	 0.000000,	 300.000000,	 86129.212707,	 347.247603,	 2.879789 
0.705000,	 0.007425,	 1.000000,	 1000.000000,	 0.000000,	 300.000000,	 86129.212707,	 347.247603,	 2.879789 
0.735000,	 0.007425,	 1.000000,	 1000.000000,	 0.000000,	 300.000000,	 86129.212707,	 347.247603,	 2.879789 
0.765000,	 0.007425,	 1.000000,	 1000.000000,	 0.000000,	 300.000000,	 86129.212707,	 347.247603,	 2.879789 
0.795000,	 0.007425,	 1.000000,	 1000.000000,	 0.000000,	 300.000000,	 86129.212707,	 347.247603,	 2.879789 
0.825000,	 0.007425,	 1.000000,	 1000.000000,	 0.000000,	 300.000000,	 86129.212707,	 347.247603,	 2.879789 
0.855000,	 0.007425,	 1.000000,	 1000.000000,	 0.000000,	 300.000000,	 86129.212707,	 347.247603,	 2.879789 
0.885000,	 0.007425,	 1.000000,	 1000.000000,	 0.000000,	 300.000000,	 86129.212707,	 347.247603,	 2.879789 
0.915000,	 0.007425,	 1.000000,	 1000.000000,	 0.000000,	 300.000000,	 86129.212707,	 347.247603,	 2.879789 
0.945000,	 0.007425,	 1.000000,	 1000.000000,	 0.000000,	 300.000000,	 86129.212707,	 347.247603,	 2.879789 
0.975000,	 0.007425,	 1.000000,	 1000.000000,	 0.000000,	 300.000000,	 86129.212707,	 347.247603,	 2.879789 
1.005000,	 0.009913,	 1.002733,	 998.834757,	 59.130203,	 299.419172,	 86197.422010,	 346.911288,	 2.884263 
1.035000,	 0.016133,	 1.117931,	 975.291633,	 125.887169,	 316.387964,	 101546.293546,	 356.605967,	 2.757617 
1.065000,	 0.023595,	 1.213246,	 960.459149,	 156.815530,	 326.308022,	 113659.488516,	 362.153348,	 2.687195 
1.095000,	 0.031058,	 1.286663,	 950.462993,	 174.201394,	 332.934388,	 122985.196334,	 365.812007,	 2.641507 
1.125000,	 0.038521,	 1.342418,	 943.348730,	 185.321364,	 337.636411,	 130126.675188,	 368.386127,	 2.609706 
1.155000,	 0.045984,	 1.384674,	 938.113305,	 193.003506,	 341.081104,	 135592.123635,	 370.260565,	 2.586723 
1.185000,	 0.053447,	 1.416827,	 934.167913,	 198.571551,	 343.663271,	 139790.956595,	 371.659458,	 2.569663 
1.215000,	 0.060909,	 1.441514,	 931.134290,	 202.741811,	 345.639221,	 143044.464347,	 372.726386,	 2.556703 
1.245000,	 0.068373,	 1.460698,	 928.756268,	 205.948823,	 347.182124,	 145595.182555,	 373.557368,	 2.546641 
1.275000,	 0.075836,	 1.475829,	 926.855923,	 208.471379,	 348.411903,	 147624.386491,	 374.218386,	 2.538656 
1.305000,	 0.083298,	 1.487958,	 925.307807,	 210.496771,	 349.412505,	 149265.135589,	 374.755358,	 2.532182 
1.335000,	 0.090761,	 1.497848,	 924.023859,	 212.151901,	 350.242591,	 150614.240490,	 375.200240,	 2.526826 
1.365000,	 0.098224,	 1.506037,	 922.941105,	 213.527773,	 350.943382,	 151740.609047,	 375.575417,	 2.522315 
1.395000,	 0.105687,	 1.512913,	 922.014327,	 214.688691,	 351.544333,	 152694.463100,	 375.896844,	 2.518455 
1.425000,	 0.113150,	 1.518764,	 921.210175,	 215.681455,	 352.067077,	 153512.960437,	 376.176219,	 2.515103 
1.455000,	 0.120612,	 1.523804,	 920.504583,	 216.539096,	 352.527282,	 154223.730520,	 376.421998,	 2.512156 
1.485000,	 0.128075,	 1.528187,	 919.879325,	 217.287921,	 352.936456,	 154846.797023,	 376.640389,	 2.509540 
1.515000,	 0.135539,	 1.532030,	 919.320598,	 217.947559,	 353.303332,	 155397.535293,	 376.836096,	 2.507197 
1.545000,	 0.143001,	 1.535426,	 918.817318,	 218.533349,	 353.634970,	 155888.272127,	 377.012918,	 2.505081 
1.575000,	 0.150464,	 1.538452,	 918.361189,	 219.056197,	 353.936766,	 156328.753249,	 377.173758,	 2.503158 
1.605000,	 0.157927,	 1.541161,	 917.945481,	 219.526119,	 354.212827,	 156726.155029,	 377.320822,	 2.501400 
1.635000,	 0.165390,	 1.543598,	 917.564746,	 219.950765,	 354.466566,	 157086.492595,	 377.455943,	 2.499786 
1.665000,	 0.172853,	 1.545804,	 917.214263,	 220.336647,	 354.700948,	 157414.912606,	 377.580714,	 2.498295 
1.695000,	 0.180316,	 1.547809,	 916.890444,	 220.688099,	 354.918363,	 157715.725473,	 377.696416,	 2.496914 
1.725000,	 0.187779,	 1.549638,	 916.590215,	 221.009838,	 355.120633,	 157992.071804,	 377.804026,	 2.495630 
1.755000,	 0.195241,	 1.551311,	 916.310971,	 221.305477,	 355.309379,	 158246.770323,	 377.904414,	 2.494432 
1.785000,	 0.202704,	 1.552849,	 916.050289,	 221.578306,	 355.486120,	 158482.408995,	 377.998393,	 2.493311 
1.815000,	 0.210167,	 1.554267,	 915.806338,	 221.830226,	 355.652134,	 158701.240269,	 378.086646,	 2.492259 
1.845000,	 0.217630,	 1.555578,	 915.577516,	 222.063828,	 355.808330,	 158904.809738,	 378.169662,	 2.491269 
1.875000,	 0.225093,	 1.556791,	 915.362416,	 222.281050,	 355.955583,	 159094.598317,	 378.247907,	 2.490336 
1.905000,	 0.232556,	 1.557919,	 915.159635,	 222.483776,	 356.094769,	 159272.076520,	 378.321851,	 2.489455 
1.935000,	 0.240019,	 1.558970,	 914.968131,	 222.672854,	 356.226660,	 159438.553752,	 378.391907,	 2.488621 
1.965000,	 0.247481,	 1.559950,	 914.787043,	 222.849910,	 356.351693,	 159594.758777,	 378.458307,	 2.487830 
1.995000,	 0.253700,	 1.385738,	 936.146520,	 188.496119,	 343.761627,	 136762.721879,	 371.712638,	 2.569014 
2.025000,	 0.256188,	 1.037495,	 965.946888,	 110.714742,	 327.182331,	 97455.194072,	 362.638200,	 2.681105 
2.055000,	 0.256188,	 0.874165,	 983.713010,	 62.442348,	 314.126506,	 78836.457118,	 355.329219,	 2.774027 
2.085000,	 0.256188,	 0.797156,	 993.284958,	 33.332717,	 306.104209,	 70055.448008,	 350.762600,	 2.833381 
2.115000,	 0.256188,	 0.762807,	 997.983397,	 16.482927,	 301.868382,	 66109.182876,	 348.327243,	 2.865465 
2.145000,	 0.256188,	 0.749751,	 999.963502,	 7.249467,	 300.009358,	 64577.506292,	 347.253019,	 2.879715 
2.175000,	 0.256188,	 0.747074,	 1000.487999,	 2.505023,	 299.510376,	 64239.890293,	 346.964119,	 2.883558 
2.205000,	 0.256188,	 0.749198,	 1000.270283,	 0.243288,	 299.730149,	 64469.792154,	 347.091393,	 2.881864 
2.235000,	 0.256188,	 0.753348,	 999.704111,	 -0.733929,	 300.293199,	 64948.653900,	 347.417249,	 2.877532 
2.265000,	 0.256188,	 0.758231,	 999.011103,	 -1.094327,	 300.981894,	 65519.604614,	 347.815406,	 2.872247 
2.295000,	 0.256188,	 0.763265,	 998.291860,	 -1.184109,	 301.696365,	 66111.137457,	 348.227983,	 2.866779 
2.325000,	 0.256188,	 0.768206,	 997.584870,	 -1.166922,	 302.398252,	 66693.917271,	 348.632819,	 2.861422 
2.355000,	 0.256188,	 0.772971,	 996.903625,	 -1.114621,	 303.074119,	 67257.607169,	 349.022203,	 2.856277 
2.385000,	 0.256188,	 0.777542,	 996.251409,	 -1.055740,	 303.720732,	 67799.659769,	 349.394326,	 2.851368 
2.415000,	 0.256188,	 0.781923,	 995.628761,	 -0.999810,	 304.337606,	 68320.149494,	 349.748966,	 2.846697 
2.445000,	 0.256188,	 0.786122,	 995.034896,	 -0.948579,	 304.925576,	 68819.742164,	 350.086654,	 2.842254 
2.475000,	 0.256188,	 0.790143,	 994.468181,	 -0.901113,	 305.486311,	 69298.986932,	 350.408398,	 2.838027 
2.505000,	 0.256188,	 0.793989,	 993.927782,	 -0.856160,	 306.020687,	 69758.085804,	 350.714743,	 2.834007 
2.535000,	 0.256188,	 0.797660,	 993.413260,	 -0.812816,	 306.529184,	 70197.054595,	 351.006003,	 2.830190 
2.565000,	 0.256188,	 0.801157,	 992.924264,	 -0.770646,	 307.012190,	 70615.904918,	 351.282438,	 2.826570 
2.595000,	 0.256188,	 0.804482,	 992.460306,	 -0.729614,	 307.470227,	 71014.799788,	 351.544383,	 2.823144 
2.625000,	 0.256188,	 0.807640,	 992.020625,	 -0.689959,	 307.904082,	 71394.156255,	 351.792319,	 2.819905 
2.655000,	 0.256188,	 0.810637,	 991.604131,	 -0.652071,	 308.314865,	 71754.693105,	 352.026908,	 2.816842 
2.685000,	 0.256188,	 0.813483,	 991.209409,	 -0.616385,	 308.704000,	 72097.430317,	 352.248991,	 2.813946 
2.715000,	 0.256188,	 0.816187,	 990.834771,	 -0.583299,	 309.073177,	 72423.650241,	 352.459554,	 2.811202 
2.745000,	 0.256188,	 0.818764,	 990.478332,	 -0.553119,	 309.424278,	 72734.832306,	 352.659690,	 2.808596 
2.775000,	 0.256188,	 0.821227,	 990.138107,	 -0.526024,	 309.759276,	 73032.573199,	 352.850543,	 2.806112 
2.805000,	 0.256188,	 0.823589,	 989.812103,	 -0.502059,	 310.080153,	 73318.503358,	 353.033253,	 2.803737 
2.835000,	 0.256188,	 0.825864,	 989.498407,	 -0.481138,	 310.388804,	 73594.208706,	 353.208912,	 2.801454 
2.865000,	 0.256188,	 0.828064,	 989.195262,	 -0.463057,	 310.686971,	 73861.164169,	 353.378522,	 2.799252 
2.895000,	 0.256188,	 0.830201,	 988.901114,	 -0.447528,	 310.976191,	 74120.682976,	 353.542964,	 2.797118 
2.925000,	 0.256188,	 0.832283,	 988.614652,	 -0.434202,	 311.257762,	 74373.883397,	 353.702985,	 2.795042 
2.955000,	 0.256188,	 0.834319,	 988.334818,	 -0.422699,	 311.532733,	 74621.672586,	 353.859184,	 2.793018 
2.985000,	 0.256188,	 0.836314,	 988.060802,	 -0.412636,	 311.801902,	 74864.745716,	 354.012021,	 2.791038 
0.015000,	 0.022277,	 1.000000,	 1000.000000,	 0.000000,	 300.000000,	 86129.212707,	 347.247603,	 2.879789 
0.045000,	 0.022277,	 1.000000,	 1000.000000,	 0.000000,	 300.000000,	 86129.212707,	 347.247603,	 2.879789 
0.075000,	 0.022277,	 1.000000,	 1000.000000,	 0.000000,	 300.000000,	 86129.212707,	 347.247603,	 2.879789 
0.105000,	 0.022277,	 1.000000,	 1000.000000,	 0.000000,	 300.000000,	 86129.212707,	 347.247603,	 2.879789 
0.135000,	 0.022277,	 1.000000,	 1000.000000,	 0.000000,	 300.000000,	 86129.212707,	 347.247603,	 2.879789 
0.165000,	 0.022277,	 1.000000,	 1000.000000,	 0.000000,	 300.000000,	 86129.212707,	 347.247603,	 2.879789 
0.195000,	 0.022277,	 1.000000,	 1000.000000,	 0.000000,	 300.000000,	 86129.212707,	 347.247603,	 2.879789 
0.225000,	 0.022277,	 1.000000,	 1000.000000,	 0.000000,	 300.000000,	 86129.212707,	 347.247603,	 2.879789 
0.255000,	 0.022277,	 1.000000,	 1000.000000,	 0.000000,	 300.000000,	 86129.212707,	 347.247603,	 2.879789 
0.285000,	 0.022277,	 1.000000,	 1000.000000,	 0.000000,	 300.000000,	 86129.212707,	 347.247603,	 2.879789 
0.315000,	 0.022277,	 1.000000,	 1000.000000,	 0.000000,	 300.000000,	 86129.212707,	 347.247603,	 2.879789 
0.345000,	 0.022277,	 1.000000,	 1000.000000,	 0.000000,	 300.000000,	 86129.212707,	 347.247603,	 2.879789 
0.375000,	 0.022277,	 1.000000,	 1000.000000,	 0.000000,	 300.000000,	 86129.212707,	 347.247603,	 2.879789 
0.405000,	 0.022277,	 1.000000,	 1000.000000,	 0.000000,	 300.000000,	 86129.212707,	 347.247603,	 2.879789 
0.435000,	 0.022277,	 1.000000,	 1000.000000,	 0.000000,	 300.000000,	 86129.212707,	 347.247603,	 2.879789 
0.465000,	 0.022277,	 1.000000,	 1000.000000,	 0.000000,	 300.000000,	 86129.212707,	 347.247603,	 2.879789 
0.495000,	 0.022277,	 1.000000,	 1000.000000,	 0.000000,	 300.000000,	 86129.212707,	 347.247603,	 2.879789 
0.525000,	 0.022277,	 1.000000,	 1000.000000,	 0.000000,	 300.000000,	 86129.212707,	 347.247603,	 2.879789 
0.555000,	 0.022277,	 1.000000,	 1000.000000,	 0.000000,	 300.000000,	 86129.212707,	 347.247603,	 2.879789 
0.585000,	 0.022277,	 1.000000,	 1000.000000,	 0.000000,	 300.000000,	 86129.212707,	 347.247603,	 2.879789 
0.615000,	 0.022277,	 1.000000,	 1000.000000,	 0.000000,	 300.000000,	 86129.212707,	 347.247603,	 2.879789 
0.645000,	 0.022277,	 1.000000,	 1000.000000,	 0.000000,	 300.000000,	 86129.212707,	 347.247603,	 2.879789 
0.675000,	 0.022277,	 1.000000,	 1000.000000,	 0.000000,	 300.000000,	 86129.212707,	 347.247603,	 2.879789 
0.705000,	 0.022277,	 1.000000,	 1000.000000,	 0.000000,	 300.000000,	 86129.212707,	 347.247603,	 2.879789 
0.735000,	 0.022277,	 1.000000,	 1000.000000,	 0.000000,	 300.000000,	 86129.212707,	 347.247603,	 2.879789 
0.765000,	 0.022277,	 1.000000,	 1000.000000,	 0.000000,	 300.000000,	 86129.212707,	 347.247603,	 2.879789 
0.795000,	 0.022277,	 1.000000,	 1000.000000,	 0.000000,	 300.000000,	 86129.212707,	 347.247603,	 2.879789 
0.825000,	 0.022277,	 1.000000,	 1000.000000,	 0.000000,	 300.000000,	 86129.212707,	 347.247603,	 2.879789 
0.855000,	 0.022277,	 1.000000,	 1000.000000,	 0.000000,	 300.000000,	 86129.212707,	 347.247603,	 2.879789 
0.885000,	 0.022277,	 1.000000,	 1000.000000,	 0.000000,	 300.000000,	 86129.212707,	 347.247603,	 2.879789 
0.915000,	 0.022277,	 1.000000,	 1000.000000,	 0.000000,	 300.000000,	 86129.212707,	 347.247603,	 2.879789 
0.945000,	 0.022277,	 1.000000,	 1000.000000,	 0.000000,	 300.000000,	 86129.212707,	 347.247603,	 2.879789 
0.975000,	 0.022277,	 1.000000,	 1000.000000,	 0.000000,	 300.000000,	 86129.212707,	 347.247603,	 2.879789 
1.005000,	 0.024740,	 1.020457,	 996.553126,	 12.161389,	 303.349717,	 88872.552106,	 349.180857,	 2.854187 
1.035000,	 0.030897,	 1.074282,	 986.332835,	 38.508455,	 312.762808,	 96463.391083,	 354.557096,	 2.783992 
1.065000,	 0.038286,	 1.144696,	 974.524980,	 68.127245,	 322.698713,	 106051.465035,	 360.144880,	 2.712529 
1.095000,	 0.045674,	 1.214766,	 963.932860,	 94.242619,	 330.789111,	 115364.712939,	 364.631540,	 2.656185 
1.125000,	 0.053063,	 1.276630,	 955.199011,	 115.460149,	 336.899646,	 123479.464590,	 367.983975,	 2.614657 
1.155000,	 0.060452,	 1.327969,	 948.204269,	 132.238674,	 341.442681,	 130177.215204,	 370.456768,	 2.584326 
1.185000,	 0.067840,	 1.369181,	 942.653620,	 145.431960,	 344.830805,	 135548.935642,	 372.290246,	 2.561996 
1.215000,	 0.075229,	 1.401683,	 938.250600,	 155.843444,	 347.381564,	 139793.131666,	 373.664648,	 2.545345 
1.245000,	 0.082618,	 1.427164,	 934.742428,	 164.131854,	 349.323977,	 143130.273106,	 374.707881,	 2.532754 
1.275000,	 0.090006,	 1.447166,	 931.923917,	 170.808706,	 350.823099,	 145759.121718,	 375.511048,	 2.523090 
1.305000,	 0.097395,	 1.462992,	 929.635134,	 176.260109,	 351.996873,	 147846.135248,	 376.138711,	 2.515554 
1.335000,	 0.104783,	 1.475653,	 927.751170,	 180.775597,	 352.931885,	 149521.771318,	 376.637949,	 2.509570 
1.365000,	 0.112172,	 1.485940,	 926.178776,	 184.569141,	 353.689499,	 150887.297960,	 377.041984,	 2.504735 
1.395000,	 0.119561,	 1.494424,	 924.847366,	 187.801040,	 354.314219,	 152016.793377,	 377.374821,	 2.500756 
1.425000,	 0.126949,	 1.501534,	 923.705509,	 190.588055,	 354.837448,	 152965.591526,	 377.653360,	 2.497429 
1.455000,	 0.134338,	 1.507571,	 922.713290,	 193.018871,	 355.283061,	 153773.518332,	 377.890418,	 2.494600 
1.485000,	 0.141727,	 1.512774,	 921.841935,	 195.158891,	 355.667718,	 154471.231153,	 378.094930,	 2.492161 
1.515000,	 0.149115,	 1.517304,	 921.069043,	 197.060233,	 356.003858,	 155080.220657,	 378.273555,	 2.490032 
1.545000,	 0.156504,	 1.521291,	 920.378434,	 198.761158,	 356.300277,	 155617.247558,	 378.431003,	 2.488157 
1.575000,	 0.163892,	 1.524825,	 919.756171,	 200.293284,	 356.564587,	 156094.439221,	 378.571341,	 2.486486 
1.605000,	 0.171281,	 1.527986,	 919.192275,	 201.680382,	 356.802022,	 156522.220655,	 378.697365,	 2.484986 
1.635000,	 0.178670,	 1.530830,	 918.678173,	 202.943363,	 357.016879,	 156907.954642,	 378.811368,	 2.483629 
1.665000,	 0.186058,	 1.533405,	 918.207821,	 204.097945,	 357.212019,	 157257.736822,	 378.914880,	 2.482398 
1.695000,	 0.193447,	 1.535741,	 917.774997,	 205.158225,	 357.390668,	 157576.160206,	 379.009620,	 2.481272 
1.725000,	 0.200836,	 1.537878,	 917.375440,	 206.134619,	 357.554920,	 157867.883582,	 379.096704,	 2.480237 
1.755000,	 0.208224,	 1.539836,	 917.005049,	 207.037552,	 357.706643,	 158136.013482,	 379.177127,	 2.479281 
1.785000,	 0.215613,	 1.541640,	 916.661167,	 207.874620,	 357.846916,	 158383.323388,	 379.251466,	 2.478398 
1.815000,	 0.223001,	 1.543302,	 916.340392,	 208.653288,	 357.977475,	 158611.910346,	 379.320644,	 2.477576 
1.845000,	 0.230390,	 1.544843,	 916.040618,	 209.378746,	 358.099312,	 158824.317782,	 379.385189,	 2.476809 
1.875000,	 0.237779,	 1.546274,	 915.759563,	 210.056996,	 358.213383,	 159022.052144,	 379.445610,	 2.476092 
1.905000,	 0.245167,	 1.547607,	 915.495964,	 210.692102,	 358.320095,	 159206.564365,	 379.502124,	 2.475421 
1.935000,	 0.252556,	 1.548848,	 915.247697,	 211.288496,	 358.420541,	 159378.912871,	 379.555313,	 2.474790 
1.965000,	 0.259944,	 1.550010,	 915.013445,	 211.849256,	 358.515349,	 159540.736431,	 379.605508,	 2.474194 
1.995000,	 0.266101,	 1.462687,	 927.257908,	 193.997517,	 350.929731,	 147367.137687,	 375.568112,	 2.522403 
2.025000,	 0.268564,	 1.244142,	 950.563506,	 145.177085,	 337.439570,	 120529.997675,	 368.278727,	 2.611027 
2.055000,	 0.268564,	 1.072666,	 969.943032,	 100.272623,	 324.434882,	 99912.801394,	 361.112399,	 2.700301 
2.085000,	 0.268564,	 0.955533,	 983.961665,	 65.274685,	 313.703812,	 86058.640765,	 355.090070,	 2.777111 
2.115000,	 0.268564,	 0.879795,	 993.356628,	 40.058443,	 305.788202,	 77238.061080,	 350.581497,	 2.835757 
2.145000,	 0.268564,	 0.833097,	 999.286961,	 22.872552,	 300.448402,	 71861.233211,	 347.507017,	 2.876341 
2.175000,	 0.268564,	 0.806070,	 1002.791439,	 11.741333,	 297.149358,	 68766.462170,	 345.593868,	 2.901846 
2.205000,	 0.268564,	 0.791934,	 1004.666936,	 4.902223,	 295.332559,	 67147.441791,	 344.535751,	 2.916037 
2.235000,	 0.268564,	 0.785921,	 1005.486945,	 0.933811,	 294.523806,	 66455.103904,	 344.063681,	 2.922387 
2.265000,	 0.268564,	 0.784772,	 1005.639263,	 -1.224352,	 294.371033,	 66323.514542,	 343.974434,	 2.923589 
2.295000,	 0.268564,	 0.786394,	 1005.398287,	 -2.304851,	 294.610277,	 66514.672858,	 344.114185,	 2.921707 
2.325000,	 0.268564,	 0.789508,	 1004.948238,	 -2.783903,	 295.059277,	 66879.832207,	 344.376308,	 2.918180 
2.355000,	 0.268564,	 0.793353,	 1004.397684,	 -2.945739,	 295.609283,	 67330.755935,	 344.697127,	 2.913868 
2.385000,	 0.268564,	 0.797496,	 1003.807534,	 -2.948626,	 296.198981,	 67817.408364,	 345.040766,	 2.909256 
2.415000,	 0.268564,	 0.801701,	 1003.210005,	 -2.876156,	 296.795898,	 68312.438247,	 345.388264,	 2.904598 
2.445000,	 0.268564,	 0.805845,	 1002.622011,	 -2.770259,	 297.383013,	 68801.335803,	 345.729715,	 2.900028 
2.475000,	 0.268564,	 0.809866,	 1002.053587,	 -2.651019,	 297.950273,	 69276.557734,	 346.059299,	 2.895623 
2.505000,	 0.268564,	 0.813735,	 1001.508936,	 -2.527193,	 298.493501,	 69734.421458,	 346.374626,	 2.891413 
2.535000,	 0.268564,	 0.817438,	 1000.989492,	 -2.402595,	 299.011297,	 70173.234636,	 346.674923,	 2.887409 
2.565000,	 0.268564,	 0.820969,	 1000.495568,	 -2.279171,	 299.503386,	 70592.334104,	 346.960071,	 2.883612 
2.595000,	 0.268564,	 0.824328,	 1000.026813,	 -2.158326,	 299.970153,	 70991.684869,	 347.230329,	 2.880017 
2.625000,	 0.268564,	 0.827521,	 999.582421,	 -2.041395,	 300.412437,	 71371.694746,	 347.486217,	 2.876616 
2.655000,	 0.268564,	 0.830553,	 999.161226,	 -1.929735,	 300.831430,	 71733.122954,	 347.728457,	 2.873400 
2.685000,	 0.268564,	 0.833434,	 998.761764,	 -1.824651,	 301.228614,	 72077.018905,	 347.957932,	 2.870357 
2.715000,	 0.268564,	 0.836176,	 998.382346,	 -1.727268,	 301.605698,	 72404.662310,	 348.175654,	 2.867472 
2.745000,	 0.268564,	 0.838791,	 998.021127,	 -1.638428,	 301.964537,	 72717.496402,	 348.382716,	 2.864730 
2.775000,	 0.268564,	 0.841292,	 997.676186,	 -1.558611,	 302.307059,	 73017.055554,	 348.580247,	 2.862117 
2.805000,	 0.268564,	 0.843693,	 997.345614,	 -1.487917,	 302.635179,	 73304.892403,	 348.769368,	 2.859617 
2.835000,	 0.268564,	 0.846006,	 997.027580,	 -1.426075,	 302.950730,	 73582.510330,	 348.951147,	 2.857215 
2.865000,	 0.268564,	 0.848243,	 996.720399,	 -1.372497,	 303.255398,	 73851.306206,	 349.126568,	 2.854900 
2.895000,	 0.268564,	 0.850416,	 996.422574,	 -1.326345,	 303.550680,	 74112.526601,	 349.296500,	 2.852658 
2.925000,	 0.268564,	 0.852532,	 996.132829,	 -1.286615,	 303.837851,	 74367.238890,	 349.461685,	 2.850480 
2.955000,	 0.268564,	 0.854599,	 995.850120,	 -1.252216,	 304.117956,	 74616.317017,	 349.622731,	 2.848359 
2.985000,	 0.268564,	 0.856624,	 995.573631,	 -1.222046,	 304.391809,	 74860.440491,	 349.780110,	 2.846286 
0.015000,	 0.037129,	 1.000000,	 1000.000000,	 0.000000,	 300.000000,	 86129.212707,	 347.247603,	 2.879789 
0.045000,	 0.037129,	 1.000000,	 1000.000000,	 0.000000,	 300.000000,	 86129.212707,	 347.247603,	 2.879789 
0.075000,	 0.037129,	 1.000000,	 1000.000000,	 0.000000,	 300.000000,	 86129.212707,	 347.247603,	 2.879789 
0.105000,	 0.037129,	 1.000000,	 1000.000000,	 0.000000,	 300.000000,	 86129.212707,	 347.247603,	 2.879789 
0.135000,	 0.037129,	 1.000000,	 1000.000000,	 0.000000,	 300.000000,	 86129.212707,	 347.247603,	 2.879789 
0.165000,	 0.037129,	 1.000000,	 1000.000000,	 0.000000,	 300.000000,	 86129.212707,	 347.247603,	 2.879789 
0.195000,	 0.037129,	 1.000000,	 1000.000000,	 0.000000,	 300.000000,	 86129.212707,	 347.247603,	 2.879789 
0.225000,	 0.037129,	 1.000000,	 1000.000000,	 0.000000,	 300.000000,	 86129.212707,	 347.247603,	 2.879789 
0.255000,	 0.037129,	 1.000000,	 1000.000000,	 0.000000,	 300.000000,	 86129.212707,	 347.247603,	 2.879789 
0.285000,	 0.037129,	 1.000000,	 1000.000000,	 0.000000,	 300.000000,	 86129.212707,	 347.247603,	 2.879789 
0.315000,	 0.037129,	 1.000000,	 1000.000000,	 0.000000,	 300.000000,	 86129.212707,	 347.247603,	 2.879789 
0.345000,	 0.037129,	 1.000000,	 1000.000000,	 0.000000,	 300.000000,	 86129.212707,	 347.247603,	 2.879789 
0.375000,	 0.037129,	 1.000000,	 1000.000000,	 0.000000,	 300.000000,	 86129.212707,	 347.247603,	 2.879789 
0.405000,	 0.037129,	 1.000000,	 1000.000000,	 0.000000,	 300.000000,	 86129.212707,	 347.247603,	 2.879789 
0.435000,	 0.037129,	 1.000000,	 1000.000000,	 0.000000,	 300.000000,	 86129.212707,	 347.247603,	 2.879789 
0.465000,	 0.037129,	 1.000000,	 1000.000000,	 0.000000,	 300.000000,	 86129.212707,	 347.247603,	 2.879789 
0.495000,	 0.037129,	 1.000000,	 1000.000000,	 0.000000,	 300.000000,	 86129.212707,	 347.247603,	 2.879789 
0.525000,	 0.037129,	 1.000000,	 1000.000000,	 0.000000,	 300.000000,	 86129.212707,	 347.247603,	 2.879789 
0.555000,	 0.037129,	 1.000000,	 1000.000000,	 0.000000,	 300.000000,	 86129.212707,	 347.247603,	 2.879789 
0.585000,	 0.037129,	 1.000000,	 1000.000000,	 0.000000,	 300.000000,	 86129.212707,	 347.247603,	 2.879789 
0.615000,	 0.037129,	 1.000000,	 1000.000000,	 0.000000,	 300.000000,	 86129.212707,	 347.247603,	 2.879789 
0.645000,	 0.037129,	 1.000000,	 1000.000000,	 0.000000,	 300.000000,	 86129.212707,	 347.247603,	 2.879789 
0.675000,	 0.037129,	 1.000000,	 1000.000000,	 0.000000,	 300.000000,	 86129.212707,	 347.247603,	 2.879789 
0.705000,	 0.037129,	 1.000000,	 1000.000000,	 0.000000,	 300.000000,	 86129.212707,	 347.247603,	 2.879789 
0.735000,	 0.037129,	 1.000000,	 1000.000000,	 0.000000,	 300.000000,	 86129.212707,	 347.247603,	 2.879789 
0.765000,	 0.037129,	 1.000000,	 1000.000000,	 0.000000,	 300.000000,	 86129.212707,	 347.247603,	 2.879789 
0.795000,	 0.037129,	 1.000000,	 1000.000000,	 0.000000,	 300.000000,	 86129.212707,	 347.247603,	 2.879789 
0.825000,	 0.037129,	 1.000000,	 1000.000000,	 0.000000,	 300.000000,	 86129.212707,	 347.247603,	 2.879789 
0.855000,	 0.037129,	 1.000000,	 1000.000000,	 0.000000,	 300.000000,	 86129.212707,	 347.247603,	 2.879789 
0.885000,	 0.037129,	 1.000000,	 1000.000000,	 0.000000,	 300.000000,	 86129.212707,	 347.247603,	 2.879789 
0.915000,	 0.037129,	 1.000000,	 1000.000000,	 0.000000,	 300.000000,	 86129.212707,	 347.247603,	 2.879789 
0.945000,	 0.037129,	 1.000000,	 1000.000000,	 0.000000,	 300.000000,	 86129.212707,	 347.247603,	 2.879789 
0.975000,	 0.037129,	 1.000000,	 1000.000000,	 0.000000,	 300.000000,	 86129.212707,	 347.247603,	 2.879789 
1.005000,	 0.039567,	 1.006448,	 998.874327,	 3.198200,	 301.114256,	 87006.577189,	 347.891877,	 2.871235 
1.035000,	 0.045662,	 1.023469,	 995.576856,	 10.956733,	 304.330889,	 89423.175619,	 349.745106,	 2.846751 
1.065000,	 0.052976,	 1.057957,	 989.262647,	 25.731583,	 310.293406,	 94247.491934,	 353.154628,	 2.802164 
1.095000,	 0.060291,	 1.107198,	 980.893790,	 45.281632,	 317.798608,	 101019.807330,	 357.400063,	 2.747449 
1.125000,	 0.067605,	 1.164212,	 971.928219,	 66.219135,	 325.336564,	 108741.175573,	 361.613859,	 2.693983 
1.155000,	 0.074919,	 1.221863,	 963.455360,	 86.003472,	 331.983191,	 116457.595590,	 365.289069,	 2.648002 
1.185000,	 0.082234,	 1.275105,	 956.008172,	 103.392448,	 337.442771,	 123530.791643,	 368.280474,	 2.611007 
1.215000,	 0.089548,	 1.321401,	 949.723716,	 118.088570,	 341.769251,	 129657.252739,	 370.633885,	 2.582163 
1.245000,	 0.096863,	 1.360067,	 944.536059,	 130.266666,	 345.142495,	 134768.331128,	 372.458462,	 2.559954 
1.275000,	 0.104177,	 1.391573,	 940.298004,	 140.289830,	 347.758254,	 138935.359068,	 373.867189,	 2.542897 
1.305000,	 0.111491,	 1.416887,	 936.844630,	 148.546163,	 349.789346,	 142288.926515,	 374.957390,	 2.529750 
1.335000,	 0.118806,	 1.437137,	 934.021196,	 155.392944,	 351.375817,	 144977.020906,	 375.806739,	 2.519538 
1.365000,	 0.126120,	 1.453369,	 931.694994,	 161.126349,	 352.627131,	 147136.602518,	 376.475302,	 2.511519 
1.395000,	 0.133435,	 1.466487,	 929.756957,	 165.986909,	 353.626770,	 148885.600481,	 377.008547,	 2.505135 
1.425000,	 0.140749,	 1.477211,	 928.121904,	 170.158273,	 354.437044,	 150317.980838,	 377.440225,	 2.499975 
1.455000,	 0.148063,	 1.486102,	 926.724418,	 173.782941,	 355.103552,	 151507.024453,	 377.794940,	 2.495740 
1.485000,	 0.155378,	 1.493574,	 925.514847,	 176.967000,	 355.660130,	 152507.459353,	 378.090896,	 2.492210 
1.515000,	 0.162692,	 1.499944,	 924.455084,	 179.793750,	 356.131708,	 153360.970289,	 378.341473,	 2.489224 
1.545000,	 0.170006,	 1.505442,	 923.516766,	 182.324293,	 356.536682,	 154098.138608,	 378.556527,	 2.486663 
1.575000,	 0.177320,	 1.510244,	 922.678547,	 184.607286,	 356.888243,	 154742.178074,	 378.743118,	 2.484442 
1.605000,	 0.184635,	 1.514477,	 921.923625,	 186.679731,	 357.196824,	 155310.070138,	 378.906821,	 2.482494 
1.635000,	 0.191949,	 1.518244,	 921.239480,	 188.571696,	 357.469724,	 155815.312256,	 379.051537,	 2.480774 
1.665000,	 0.199264,	 1.521615,	 920.615251,	 190.307404,	 357.713439,	 156267.724180,	 379.180729,	 2.479238 
1.695000,	 0.206578,	 1.524656,	 920.043080,	 191.906488,	 357.932321,	 156675.843538,	 379.296720,	 2.477860 
1.725000,	 0.213892,	 1.527411,	 919.516124,	 193.384782,	 358.130307,	 157045.788721,	 379.401607,	 2.476615 
1.755000,	 0.221207,	 1.529923,	 919.029283,	 194.756096,	 358.309977,	 157382.951609,	 379.496766,	 2.475485 
1.785000,	 0.228521,	 1.532217,	 918.577390,	 196.032292,	 358.474225,	 157691.212338,	 379.583736,	 2.474453 
1.815000,	 0.235836,	 1.534326,	 918.156870,	 197.223072,	 358.624815,	 157974.589024,	 379.663457,	 2.473507 
1.845000,	 0.243150,	 1.536268,	 917.764276,	 198.336681,	 358.763602,	 158235.746108,	 379.736914,	 2.472635 
1.875000,	 0.250464,	 1.538065,	 917.397158,	 199.380596,	 358.891624,	 158477.357728,	 379.804662,	 2.471832 
1.905000,	 0.257779,	 1.539728,	 917.052541,	 200.361592,	 359.010485,	 158701.229249,	 379.867550,	 2.471086 
1.935000,	 0.265093,	 1.541275,	 916.728572,	 201.285108,	 359.120987,	 158909.630483,	 379.926006,	 2.470393 
1.965000,	 0.272407,	 1.542717,	 916.423387,	 202.156119,	 359.224005,	 159103.868277,	 379.980495,	 2.469747 
1.995000,	 0.278502,	 1.495440,	 923.066691,	 193.505821,	 354.866741,	 152357.421378,	 377.668948,	 2.497243 
2.025000,	 0.280940,	 1.348621,	 940.183450,	 163.342906,	 344.394609,	 133344.632109,	 372.054706,	 2.564857 
2.055000,	 0.280940,	 1.198201,	 957.691059,	 127.991264,	 333.019848,	 114558.987216,	 365.858954,	 2.640925 
2.085000,	 0.280940,	 1.074355,	 972.540031,	 95.005080,	 322.440271,	 99454.887698,	 360.000636,	 2.714355 
2.115000,	 0.280940,	 0.981037,	 984.083868,	 67.199993,	 313.457685,	 88286.387538,	 354.950744,	 2.778908 
2.145000,	 0.280940,	 0.914158,	 992.566511,	 45.180637,	 306.351601,	 80402.703770,	 350.904313,	 2.831525 