TITLE = "Final State"
VARIABLES = "X", "Y", "rho", "u", "v", "T", "p", "c", "M"
ZONE I=101, J=51, DATAPACKING=POINT
0.000000,	 0.000000,	 0.044551,	 1532.896743,	 0.000182,	 1188.340965,	 15231.006708,	 661.516206,	 2.317247 
0.004140,	 0.000000,	 0.044551,	 1532.896959,	 -0.002186,	 1188.341480,	 15230.900727,	 661.516349,	 2.317247 
0.008280,	 0.000000,	 0.044550,	 1532.899436,	 0.000843,	 1188.336967,	 15230.772322,	 661.515093,	 2.317255 
0.012421,	 0.000000,	 0.044550,	 1532.900342,	 0.000544,	 1188.332912,	 15230.559907,	 661.513964,	 2.317261 
0.016561,	 0.000000,	 0.044550,	 1532.900499,	 -0.000423,	 1188.332543,	 15230.672451,	 661.513861,	 2.317261 
0.020701,	 0.000000,	 0.044551,	 1532.899608,	 -0.000028,	 1188.333253,	 15230.768454,	 661.514059,	 2.317259 
0.024841,	 0.000000,	 0.044551,	 1532.898760,	 -0.000174,	 1188.333944,	 15230.954885,	 661.514251,	 2.317257 
0.028981,	 0.000000,	 0.044552,	 1532.903439,	 -0.000023,	 1188.334438,	 15231.093211,	 661.514389,	 2.317264 
0.033122,	 0.000000,	 0.044555,	 1532.885671,	 -0.011540,	 1188.347228,	 15232.455022,	 661.517949,	 2.317225 
0.037262,	 0.000000,	 0.044543,	 1532.950055,	 -0.025279,	 1188.275327,	 15227.374964,	 661.497936,	 2.317392 
0.041402,	 0.000000,	 0.044497,	 1533.217609,	 -0.051922,	 1187.963520,	 15207.660945,	 661.411141,	 2.318101 
0.045542,	 0.000000,	 0.044384,	 1533.881759,	 -0.109453,	 1187.189401,	 15159.310857,	 661.195606,	 2.319861 
0.049682,	 0.000000,	 0.044136,	 1535.349781,	 -0.240965,	 1185.477745,	 15052.857740,	 660.718788,	 2.323757 
0.053823,	 0.000000,	 0.043598,	 1538.440466,	 -0.476207,	 1181.872645,	 14824.210340,	 659.713382,	 2.331983 
0.057963,	 0.000000,	 0.042589,	 1544.716041,	 -1.010687,	 1174.542879,	 14391.206713,	 657.664488,	 2.348791 
0.062103,	 0.000000,	 0.040813,	 1556.779825,	 0.742614,	 1160.363093,	 13624.614989,	 653.682573,	 2.381553 
0.066243,	 0.000000,	 0.038044,	 1575.956821,	 1.943345,	 1137.582387,	 12450.727902,	 647.234090,	 2.434912 
0.070383,	 0.000000,	 0.034727,	 1599.583916,	 0.675882,	 1109.144927,	 11081.140926,	 639.093061,	 2.502897 
0.074524,	 0.000000,	 0.031249,	 1625.756304,	 1.618707,	 1077.121430,	 9683.563547,	 629.799464,	 2.581389 
0.078664,	 0.000000,	 0.027723,	 1654.224340,	 1.086377,	 1041.681499,	 8308.276044,	 619.351835,	 2.670897 
0.082804,	 0.000000,	 0.024551,	 1681.746801,	 0.578358,	 1006.819506,	 7111.312409,	 608.899705,	 2.761944 
0.086944,	 0.000000,	 0.021760,	 1707.757902,	 0.832280,	 973.319582,	 6093.058127,	 598.684045,	 2.852520 
0.091084,	 0.000000,	 0.019345,	 1731.926935,	 0.597353,	 941.743870,	 5241.239722,	 588.892949,	 2.940988 
0.095225,	 0.000000,	 0.017253,	 1754.330971,	 0.586219,	 911.998468,	 4526.780270,	 579.518104,	 3.027224 
0.099365,	 0.000000,	 0.015439,	 1775.068058,	 0.517974,	 883.996024,	 3926.355028,	 570.551839,	 3.111143 
0.103505,	 0.000000,	 0.013890,	 1794.099195,	 0.321840,	 858.140435,	 3429.076327,	 562.146015,	 3.191518 
0.107645,	 0.000000,	 0.012562,	 1811.538390,	 0.496285,	 834.310729,	 3015.151678,	 554.285947,	 3.268238 
0.111785,	 0.000000,	 0.011385,	 1827.809281,	 0.544459,	 811.612687,	 2658.345077,	 546.694075,	 3.343386 
0.115926,	 0.000000,	 0.010361,	 1842.875269,	 0.187661,	 790.430383,	 2356.199260,	 539.512817,	 3.415814 
0.120066,	 0.000000,	 0.009481,	 1856.766243,	 0.287090,	 770.998339,	 2103.072386,	 532.839822,	 3.484661 
0.124206,	 0.000000,	 0.008702,	 1869.677076,	 0.459606,	 752.689010,	 1884.338805,	 526.474985,	 3.551312 
0.128346,	 0.000000,	 0.008003,	 1881.782101,	 0.302460,	 735.217266,	 1692.793083,	 520.328725,	 3.616526 
0.132486,	 0.000000,	 0.007391,	 1893.039947,	 0.135448,	 718.987244,	 1528.812914,	 514.553511,	 3.678995 
0.136627,	 0.000000,	 0.006852,	 1903.528202,	 0.204396,	 703.905524,	 1387.679246,	 509.128185,	 3.738800 
0.140767,	 0.000000,	 0.006370,	 1913.317307,	 0.271378,	 689.629570,	 1263.782399,	 503.938909,	 3.796725 
0.144907,	 0.000000,	 0.005937,	 1922.500367,	 0.263372,	 676.051258,	 1154.667450,	 498.953147,	 3.853068 
0.149047,	 0.000000,	 0.005558,	 1930.924080,	 0.280034,	 663.600129,	 1061.177624,	 494.337076,	 3.906088 
0.153187,	 0.000000,	 0.005219,	 1938.806450,	 0.236584,	 652.032951,	 978.990724,	 490.009755,	 3.956669 
0.157328,	 0.000000,	 0.004929,	 1945.812902,	 0.275906,	 641.711801,	 910.035840,	 486.116057,	 4.002774 
0.161468,	 0.000000,	 0.004631,	 1951.143052,	 3.389581,	 634.268105,	 845.042201,	 483.288421,	 4.037229 
0.165608,	 0.000000,	 0.004641,	 1951.856230,	 -6.024233,	 636.297926,	 849.501170,	 484.061127,	 4.032271 
0.169748,	 0.000000,	 0.003962,	 1971.086287,	 28.069464,	 611.758960,	 697.262196,	 474.635396,	 4.153264 
0.173888,	 0.000000,	 0.002716,	 1990.329508,	 35.688285,	 581.591566,	 454.456120,	 462.784712,	 4.301459 
0.178029,	 0.000000,	 0.004765,	 1911.996360,	 -102.744767,	 681.134229,	 933.669195,	 500.825354,	 3.823199 
0.182169,	 0.000000,	 0.009165,	 1810.445586,	 -69.907948,	 829.747602,	 2187.890345,	 552.768080,	 3.277676 
0.186309,	 0.000000,	 0.010321,	 1810.965194,	 47.143019,	 843.306811,	 2504.086677,	 557.266271,	 3.250831 
0.190449,	 0.000000,	 0.008173,	 1866.295593,	 68.455491,	 770.014547,	 1810.600639,	 532.499763,	 3.507139 
0.194589,	 0.000000,	 0.006150,	 1896.122542,	 36.458017,	 719.423547,	 1272.888556,	 514.709611,	 3.684549 
0.198730,	 0.000000,	 0.005292,	 1906.215220,	 -2.445607,	 698.237523,	 1063.124113,	 507.074237,	 3.759246 
0.202870,	 0.000000,	 0.005861,	 1893.369074,	 -35.259269,	 706.707508,	 1191.654879,	 510.140503,	 3.712109 
0.207010,	 0.000000,	 0.007010,	 1869.075587,	 -17.722462,	 746.238739,	 1504.981746,	 524.214282,	 3.565640 
0.211150,	 0.000000,	 0.007068,	 1868.846858,	 12.287548,	 763.202138,	 1551.943758,	 530.138986,	 3.525278 
0.215290,	 0.000000,	 0.006363,	 1888.183444,	 21.845151,	 736.346418,	 1347.862751,	 520.728134,	 3.626287 
0.219431,	 0.000000,	 0.005803,	 1898.147569,	 0.540573,	 719.860164,	 1201.857760,	 514.865776,	 3.686684 
0.223571,	 0.000000,	 0.006079,	 1890.231763,	 -14.050358,	 726.423056,	 1270.429550,	 517.207440,	 3.654789 
0.227711,	 0.000000,	 0.006527,	 1879.959646,	 -3.673539,	 739.944443,	 1389.495154,	 521.998806,	 3.601470 
0.231851,	 0.000000,	 0.006482,	 1880.696642,	 6.012778,	 743.226458,	 1385.889136,	 523.155185,	 3.594930 
0.235991,	 0.000000,	 0.006195,	 1887.819334,	 4.241147,	 734.002223,	 1308.223969,	 519.898592,	 3.631139 
0.240132,	 0.000000,	 0.006060,	 1890.688444,	 -2.827782,	 729.902403,	 1272.561544,	 518.444594,	 3.646852 
0.244272,	 0.000000,	 0.006146,	 1888.372408,	 -4.771561,	 733.165889,	 1296.375639,	 519.602317,	 3.634276 
0.248412,	 0.000000,	 0.006272,	 1885.714138,	 -1.308016,	 734.562794,	 1325.382785,	 520.097082,	 3.625697 
0.252552,	 0.000000,	 0.006301,	 1885.090489,	 -0.177357,	 735.297168,	 1332.839309,	 520.356999,	 3.622687 
0.256692,	 0.000000,	 0.006263,	 1885.910972,	 1.117655,	 736.199162,	 1326.412033,	 520.676064,	 3.622043 
0.260833,	 0.000000,	 0.006228,	 1886.679717,	 0.335233,	 735.044532,	 1317.042312,	 520.267598,	 3.626364 
0.264973,	 0.000000,	 0.006195,	 1887.434429,	 -0.518628,	 734.061658,	 1308.341559,	 519.919641,	 3.630243 
0.269113,	 0.000000,	 0.006173,	 1887.966801,	 -0.699023,	 733.272467,	 1302.313667,	 519.640082,	 3.633220 
0.273253,	 0.000000,	 0.006138,	 1888.805468,	 -0.540646,	 732.046452,	 1292.693234,	 519.205487,	 3.637877 
0.277393,	 0.000000,	 0.006104,	 1889.539899,	 -0.972747,	 730.965428,	 1283.536628,	 518.821986,	 3.641982 
0.281534,	 0.000000,	 0.006102,	 1889.487890,	 -1.885278,	 731.000801,	 1283.371349,	 518.834539,	 3.641795 
0.285674,	 0.000000,	 0.006143,	 1888.569710,	 -1.625522,	 731.367483,	 1292.645584,	 518.964651,	 3.639112 
0.289814,	 0.000000,	 0.006204,	 1887.224487,	 -1.429272,	 731.709279,	 1306.032641,	 519.085903,	 3.635670 
0.293954,	 0.000000,	 0.006260,	 1886.027127,	 -0.945502,	 732.551481,	 1319.211520,	 519.384553,	 3.631274 
0.298094,	 0.000000,	 0.006283,	 1885.560946,	 0.167974,	 734.607049,	 1327.774843,	 520.112749,	 3.625293 
0.302235,	 0.000000,	 0.006237,	 1886.530944,	 2.243708,	 734.851111,	 1318.486731,	 520.199141,	 3.626558 
0.306375,	 0.000000,	 0.006157,	 1888.401071,	 1.767460,	 732.219569,	 1296.984687,	 519.266875,	 3.636669 
0.310515,	 0.000000,	 0.006096,	 1889.853760,	 0.085344,	 730.140201,	 1280.482196,	 518.529040,	 3.644644 
0.314655,	 0.000000,	 0.006087,	 1889.853648,	 -1.566466,	 730.075684,	 1278.412070,	 518.506130,	 3.644806 
0.318795,	 0.000000,	 0.006144,	 1888.459467,	 -1.768944,	 731.559229,	 1293.190112,	 519.032676,	 3.638423 
0.322936,	 0.000000,	 0.006189,	 1887.505649,	 -0.410860,	 732.093652,	 1303.565577,	 519.222225,	 3.635256 
0.327076,	 0.000000,	 0.006192,	 1887.458295,	 0.173239,	 732.538544,	 1304.885764,	 519.379966,	 3.634061 
0.331216,	 0.000000,	 0.006168,	 1888.006986,	 0.810708,	 732.580007,	 1300.027169,	 519.394665,	 3.635015 
0.335356,	 0.000000,	 0.006125,	 1889.113420,	 0.756772,	 731.078825,	 1288.279475,	 518.862228,	 3.640877 
0.339496,	 0.000000,	 0.006085,	 1890.290730,	 0.382426,	 729.398308,	 1276.991794,	 518.265536,	 3.647340 
0.343637,	 0.000000,	 0.006041,	 1891.007815,	 -0.203193,	 728.358564,	 1265.768942,	 517.896015,	 3.651327 
0.347777,	 0.000000,	 0.006074,	 1889.831675,	 -3.061725,	 728.359500,	 1272.869379,	 517.896347,	 3.649059 
0.351917,	 0.000000,	 0.006204,	 1887.034883,	 -2.836207,	 729.739359,	 1302.525469,	 518.386686,	 3.640211 
0.356057,	 0.000000,	 0.006273,	 1885.569500,	 0.652069,	 732.071507,	 1321.145204,	 519.214372,	 3.631582 
0.360197,	 0.000000,	 0.006250,	 1889.024856,	 3.274809,	 728.447220,	 1309.825507,	 517.927533,	 3.647282 
0.364338,	 0.000000,	 0.006125,	 1891.864496,	 3.280284,	 725.723787,	 1278.718122,	 516.958443,	 3.659612 
0.368478,	 0.000000,	 0.006024,	 1890.934630,	 -0.739850,	 728.290485,	 1262.240641,	 517.871811,	 3.651357 
0.372618,	 0.000000,	 0.006086,	 1889.408037,	 -2.194174,	 728.995418,	 1276.469228,	 518.122381,	 3.646647 
0.376758,	 0.000000,	 0.006166,	 1887.734037,	 -0.629561,	 730.351624,	 1295.496788,	 518.604109,	 3.640029 
0.380898,	 0.000000,	 0.006186,	 1890.599413,	 2.504440,	 726.242831,	 1292.576561,	 517.143277,	 3.655855 
0.385039,	 0.000000,	 0.006156,	 1895.633047,	 3.293915,	 718.606861,	 1272.625142,	 514.417380,	 3.685015 
0.389179,	 0.000000,	 0.006089,	 1898.473208,	 2.360253,	 714.584142,	 1251.858890,	 512.975520,	 3.700907 
0.393319,	 0.000000,	 0.005989,	 1896.572653,	 0.398992,	 718.708898,	 1238.398223,	 514.453901,	 3.686575 
0.397459,	 0.000000,	 0.005931,	 1893.186922,	 -0.981987,	 724.935019,	 1237.029192,	 516.677433,	 3.664157 
0.401599,	 0.000000,	 0.005963,	 1892.307982,	 -1.058355,	 725.595951,	 1244.685463,	 516.912910,	 3.660787 
0.405740,	 0.000000,	 0.005999,	 1891.592031,	 -0.379902,	 725.653106,	 1252.308272,	 516.933268,	 3.659258 
0.409880,	 0.000000,	 0.006054,	 1895.173510,	 0.810893,	 719.429560,	 1252.948307,	 514.711762,	 3.682010 
0.414020,	 0.000000,	 0.006082,	 1899.283340,	 1.258139,	 712.818330,	 1247.242433,	 512.341320,	 3.707067 
0.000000,	 0.000655,	 0.044552,	 1532.900575,	 -0.000447,	 1188.333367,	 15231.292234,	 661.514091,	 2.317261 
0.004140,	 0.000663,	 0.044551,	 1532.899692,	 -0.002276,	 1188.334078,	 15230.829992,	 661.514289,	 2.317259 
0.008280,	 0.000673,	 0.044550,	 1532.899998,	 0.001034,	 1188.333673,	 15230.723189,	 661.514176,	 2.317259 
0.012421,	 0.000685,	 0.044550,	 1532.900591,	 0.000646,	 1188.332471,	 15230.568000,	 661.513841,	 2.317262 
0.016561,	 0.000697,	 0.044550,	 1532.900602,	 -0.000495,	 1188.332505,	 15230.680969,	 661.513851,	 2.317262 
0.020701,	 0.000710,	 0.044551,	 1532.900251,	 -0.000200,	 1188.333142,	 15230.775686,	 661.514028,	 2.317260 
0.024841,	 0.000724,	 0.044551,	 1532.902061,	 -0.000708,	 1188.334121,	 15230.971770,	 661.514301,	 2.317262 
0.028981,	 0.000738,	 0.044552,	 1532.910348,	 -0.001381,	 1188.334835,	 15231.187311,	 661.514499,	 2.317274 
0.033122,	 0.000752,	 0.044555,	 1532.893013,	 -0.004951,	 1188.343541,	 15232.506365,	 661.516923,	 2.317239 
0.037262,	 0.000767,	 0.044543,	 1532.964968,	 0.034781,	 1188.258110,	 15227.314290,	 661.493144,	 2.317431 
0.041402,	 0.000782,	 0.044498,	 1533.247134,	 0.129052,	 1187.929244,	 15207.621493,	 661.401599,	 2.318179 
0.045542,	 0.000797,	 0.044387,	 1533.942257,	 0.315069,	 1187.118867,	 15159.281036,	 661.175964,	 2.320021 
0.049682,	 0.000812,	 0.044140,	 1535.466919,	 0.711398,	 1185.340672,	 15052.315798,	 660.680588,	 2.324069 
0.053823,	 0.000828,	 0.043638,	 1538.719747,	 1.513712,	 1181.543758,	 14833.363172,	 659.621585,	 2.332732 
0.057963,	 0.000843,	 0.042587,	 1545.551110,	 3.645046,	 1173.543157,	 14378.109500,	 657.384540,	 2.351067 
0.062103,	 0.000859,	 0.040654,	 1558.117077,	 8.209295,	 1158.718136,	 13552.168077,	 653.219071,	 2.385323 
0.066243,	 0.000875,	 0.037903,	 1576.754397,	 12.490661,	 1136.499938,	 12393.022533,	 646.926083,	 2.437379 
0.070383,	 0.000891,	 0.034616,	 1600.252988,	 14.990001,	 1108.111599,	 11035.448517,	 638.795288,	 2.505221 
0.074524,	 0.000907,	 0.031124,	 1626.582798,	 18.126713,	 1075.800486,	 9632.932665,	 629.413164,	 2.584445 
0.078664,	 0.000923,	 0.027677,	 1654.396587,	 19.955426,	 1041.093954,	 8289.636510,	 619.177143,	 2.672122 
0.082804,	 0.000939,	 0.024499,	 1681.987068,	 20.434750,	 1006.098637,	 7091.209798,	 608.681685,	 2.763532 
0.086944,	 0.000955,	 0.021722,	 1707.882283,	 21.006156,	 972.715479,	 6078.889843,	 598.498225,	 2.853829 
0.091084,	 0.000971,	 0.019315,	 1731.949621,	 21.153897,	 941.184967,	 5230.042115,	 588.718176,	 2.942119 
0.095225,	 0.000987,	 0.017228,	 1754.324678,	 21.280860,	 911.453885,	 4517.396485,	 579.345054,	 3.028340 
0.099365,	 0.001002,	 0.015426,	 1775.045118,	 21.117969,	 883.623095,	 3921.491501,	 570.431478,	 3.111979 
0.103505,	 0.001018,	 0.013878,	 1794.072546,	 20.633147,	 857.771550,	 3424.693024,	 562.025179,	 3.192368 
0.107645,	 0.001034,	 0.012542,	 1811.561420,	 20.577174,	 833.759646,	 3008.427845,	 554.102857,	 3.269570 
0.111785,	 0.001049,	 0.011378,	 1827.814169,	 20.510911,	 811.288849,	 2655.678545,	 546.584997,	 3.344273 
0.115926,	 0.001065,	 0.010359,	 1842.904687,	 19.885815,	 790.206257,	 2355.028291,	 539.436322,	 3.416551 
0.120066,	 0.001080,	 0.009472,	 1856.798222,	 19.489928,	 770.599797,	 2099.851579,	 532.702088,	 3.485814 
0.124206,	 0.001096,	 0.008693,	 1869.722044,	 19.447743,	 752.288325,	 1881.448691,	 526.334835,	 3.552535 
0.128346,	 0.001111,	 0.008002,	 1881.832910,	 19.097656,	 735.026959,	 1692.211680,	 520.261379,	 3.617278 
0.132486,	 0.001125,	 0.007390,	 1893.113414,	 18.502561,	 718.796405,	 1528.217212,	 514.485218,	 3.679802 
0.136627,	 0.001140,	 0.006849,	 1903.590673,	 18.125690,	 703.626497,	 1386.419068,	 509.027266,	 3.739833 
0.140767,	 0.001155,	 0.006367,	 1913.401100,	 17.913059,	 689.372002,	 1262.777745,	 503.844792,	 3.797767 
0.144907,	 0.001169,	 0.005937,	 1922.580723,	 17.440502,	 676.002936,	 1154.657776,	 498.935315,	 3.853525 
0.149047,	 0.001183,	 0.005557,	 1931.046808,	 16.828970,	 663.619546,	 1060.963782,	 494.344308,	 3.906427 
0.153187,	 0.001197,	 0.005222,	 1938.843142,	 16.153831,	 652.121210,	 979.662687,	 490.042917,	 3.956614 
0.157328,	 0.001211,	 0.004906,	 1946.243696,	 16.396437,	 641.470942,	 905.377512,	 486.024819,	 4.004554 
0.161468,	 0.001224,	 0.004725,	 1952.600348,	 9.456446,	 633.490307,	 861.175671,	 482.992004,	 4.042765 
0.165608,	 0.001237,	 0.004243,	 1963.998904,	 27.367823,	 615.202984,	 750.904520,	 475.969551,	 4.126713 
0.169748,	 0.001250,	 0.003386,	 1983.465375,	 74.559278,	 587.665543,	 572.460644,	 465.195031,	 4.266740 
0.173888,	 0.001263,	 0.003987,	 1966.709823,	 -38.332683,	 610.096266,	 699.855286,	 473.989954,	 4.150053 
0.178029,	 0.001275,	 0.006533,	 1905.216658,	 -177.921440,	 696.183549,	 1308.380402,	 506.327869,	 3.779184 
0.182169,	 0.001287,	 0.008645,	 1877.263160,	 -84.788152,	 744.377510,	 1851.245656,	 523.560140,	 3.589228 
0.186309,	 0.001299,	 0.008634,	 1864.278209,	 38.734038,	 754.239345,	 1873.480633,	 527.016904,	 3.538180 
0.190449,	 0.001310,	 0.007393,	 1873.471952,	 82.324782,	 735.780792,	 1564.945482,	 520.528097,	 3.602649 
0.194589,	 0.001321,	 0.006400,	 1901.260566,	 48.094228,	 706.387088,	 1300.583068,	 510.024842,	 3.728973 
0.198730,	 0.001332,	 0.006191,	 1910.044336,	 -3.929617,	 699.975731,	 1246.695263,	 507.705005,	 3.762122 
0.202870,	 0.001343,	 0.006512,	 1903.466890,	 -43.877885,	 711.683808,	 1333.396765,	 511.933436,	 3.719180 
0.207010,	 0.001353,	 0.006812,	 1896.731916,	 -24.584021,	 719.669020,	 1410.329510,	 514.797415,	 3.684733 
0.211150,	 0.001362,	 0.006805,	 1895.275472,	 16.854004,	 711.693041,	 1393.260640,	 511.936757,	 3.702314 
0.215290,	 0.001371,	 0.006531,	 1898.702162,	 27.911200,	 706.784235,	 1327.935527,	 510.168195,	 3.722120 
0.219431,	 0.001380,	 0.006466,	 1902.549210,	 1.097203,	 704.440885,	 1310.383085,	 509.321759,	 3.735457 
0.223571,	 0.001389,	 0.006498,	 1902.876047,	 -17.331469,	 706.091027,	 1319.948341,	 509.917950,	 3.731885 
0.227711,	 0.001397,	 0.006541,	 1901.652686,	 -8.564334,	 707.290740,	 1330.948224,	 510.350964,	 3.726204 
0.231851,	 0.001405,	 0.006591,	 1900.722323,	 7.308794,	 705.212014,	 1337.119649,	 509.600452,	 3.729856 
0.235991,	 0.001412,	 0.006530,	 1901.512956,	 8.824008,	 704.680026,	 1323.814202,	 509.408203,	 3.732828 
0.240132,	 0.001419,	 0.006473,	 1902.896988,	 -0.439554,	 703.984514,	 1310.898965,	 509.156751,	 3.737350 
0.244272,	 0.001426,	 0.006468,	 1903.269060,	 -4.889905,	 703.386587,	 1308.802871,	 508.940480,	 3.739682 
0.248412,	 0.001433,	 0.006493,	 1902.664238,	 -2.806837,	 705.131988,	 1317.149771,	 509.571537,	 3.733855 
0.252552,	 0.001439,	 0.006523,	 1902.101743,	 0.042978,	 705.177821,	 1323.429438,	 509.588098,	 3.732626 
0.256692,	 0.001446,	 0.006526,	 1902.097080,	 1.438463,	 704.175333,	 1322.024843,	 509.225751,	 3.735274 
0.260833,	 0.001451,	 0.006510,	 1902.449670,	 1.533994,	 704.360522,	 1319.143815,	 509.292706,	 3.735475 
0.264973,	 0.001457,	 0.006481,	 1903.070178,	 1.304218,	 703.642347,	 1312.002891,	 509.033000,	 3.738600 
0.269113,	 0.001462,	 0.006449,	 1903.753881,	 1.225518,	 702.757719,	 1303.934222,	 508.712918,	 3.742296 
0.273253,	 0.001467,	 0.006421,	 1904.337917,	 1.280704,	 701.917970,	 1296.727312,	 508.408888,	 3.745683 
0.277393,	 0.001472,	 0.006407,	 1904.679167,	 0.204357,	 701.432242,	 1293.004103,	 508.232948,	 3.747650 
0.281534,	 0.001477,	 0.006411,	 1904.668829,	 -1.434078,	 701.452488,	 1293.723036,	 508.240282,	 3.747577 
0.285674,	 0.001482,	 0.006432,	 1904.258035,	 -2.451157,	 702.302794,	 1299.553221,	 508.548235,	 3.744501 
0.289814,	 0.001485,	 0.006469,	 1903.542188,	 -2.706099,	 703.618836,	 1309.422058,	 509.024496,	 3.739592 
0.293954,	 0.001489,	 0.006498,	 1902.971280,	 -1.647883,	 704.528586,	 1317.135235,	 509.353463,	 3.736054 
0.298094,	 0.001493,	 0.006500,	 1902.974662,	 0.740740,	 703.608964,	 1315.703730,	 509.020925,	 3.738500 
0.302235,	 0.001497,	 0.006471,	 1903.577172,	 3.089390,	 702.193142,	 1307.247241,	 508.508534,	 3.743457 
0.306375,	 0.001500,	 0.006426,	 1904.410499,	 2.983745,	 701.633320,	 1297.177383,	 508.305789,	 3.746589 
0.310515,	 0.001504,	 0.006398,	 1904.986138,	 1.050300,	 701.020008,	 1290.298033,	 508.083580,	 3.749356 
0.314655,	 0.001507,	 0.006400,	 1905.098796,	 -1.512013,	 700.887468,	 1290.403339,	 508.035547,	 3.749933 
0.318795,	 0.001510,	 0.006417,	 1904.793587,	 -2.274719,	 701.338866,	 1294.755516,	 508.199118,	 3.748127 
0.322936,	 0.001512,	 0.006435,	 1904.420042,	 -0.714552,	 701.923030,	 1299.424118,	 508.410720,	 3.745830 
0.327076,	 0.001514,	 0.006438,	 1904.369945,	 0.668048,	 701.624447,	 1299.535403,	 508.302575,	 3.746528 
0.331216,	 0.001517,	 0.006420,	 1904.719326,	 1.898204,	 701.005154,	 1294.813179,	 508.078198,	 3.748872 
0.335356,	 0.001519,	 0.006384,	 1905.372113,	 2.307383,	 700.414788,	 1286.495032,	 507.864208,	 3.751738 
0.339496,	 0.001521,	 0.006351,	 1905.928720,	 1.569827,	 699.665644,	 1278.344367,	 507.592537,	 3.754841 
0.343637,	 0.001523,	 0.006361,	 1905.861588,	 -0.613510,	 699.769637,	 1280.567996,	 507.630258,	 3.754429 
0.347777,	 0.001525,	 0.006402,	 1905.204551,	 -4.098525,	 701.541407,	 1292.112864,	 508.272495,	 3.748401 
0.351917,	 0.001527,	 0.006432,	 1904.576328,	 -3.849309,	 703.125353,	 1301.008212,	 508.845962,	 3.742941 
0.356057,	 0.001528,	 0.006435,	 1904.519853,	 0.317101,	 702.138464,	 1299.910438,	 508.488735,	 3.745451 
0.360197,	 0.001529,	 0.006385,	 1904.016915,	 4.119410,	 702.275027,	 1290.106496,	 508.538182,	 3.744107 
0.364338,	 0.001530,	 0.006352,	 1904.618757,	 3.751267,	 701.653360,	 1282.300927,	 508.313048,	 3.746948 
0.368478,	 0.001531,	 0.006363,	 1905.958160,	 -0.689090,	 699.637803,	 1280.734672,	 507.582438,	 3.754973 
0.372618,	 0.001532,	 0.006369,	 1906.085012,	 -2.832102,	 699.842618,	 1282.396077,	 507.656728,	 3.754677 
0.376758,	 0.001533,	 0.006371,	 1906.604870,	 -0.623353,	 699.459122,	 1281.976938,	 507.517618,	 3.756727 
0.380898,	 0.001534,	 0.006325,	 1906.165701,	 3.129210,	 700.496117,	 1274.692225,	 507.893693,	 3.753085 
0.385039,	 0.001535,	 0.006251,	 1905.518941,	 4.141790,	 701.833817,	 1262.244625,	 508.378410,	 3.748238 
0.389179,	 0.001535,	 0.006206,	 1906.182717,	 3.210622,	 700.703139,	 1250.983980,	 507.968738,	 3.752564 
0.393319,	 0.001535,	 0.006212,	 1908.045536,	 1.029813,	 696.854912,	 1245.472698,	 506.571948,	 3.766584 
0.397459,	 0.001536,	 0.006237,	 1909.451913,	 -0.842096,	 693.695451,	 1244.673886,	 505.422273,	 3.777934 
0.401599,	 0.001536,	 0.006244,	 1909.330034,	 -1.408441,	 693.950137,	 1246.595911,	 505.515046,	 3.777000 
0.405740,	 0.001536,	 0.006249,	 1909.610089,	 -0.455393,	 694.361603,	 1248.358629,	 505.664892,	 3.776434 
0.409880,	 0.001537,	 0.006211,	 1908.195953,	 1.056515,	 697.504103,	 1246.370364,	 506.807855,	 3.765128 
0.414020,	 0.001537,	 0.006163,	 1906.626253,	 1.396938,	 700.255749,	 1241.551646,	 507.806546,	 3.754632 
0.000000,	 0.001311,	 0.044553,	 1532.900559,	 0.000223,	 1188.332000,	 15231.526552,	 661.513710,	 2.317262 
0.004140,	 0.001325,	 0.044551,	 1532.900423,	 -0.001223,	 1188.331835,	 15230.747333,	 661.513664,	 2.317262 
0.008280,	 0.001347,	 0.044550,	 1532.900240,	 0.000430,	 1188.332854,	 15230.677238,	 661.513948,	 2.317261 
0.012421,	 0.001370,	 0.044550,	 1532.900366,	 0.000622,	 1188.332896,	 15230.584474,	 661.513960,	 2.317261 
0.016561,	 0.001395,	 0.044550,	 1532.900320,	 -0.000373,	 1188.332647,	 15230.686344,	 661.513890,	 2.317261 
0.020701,	 0.001421,	 0.044551,	 1532.900640,	 -0.000392,	 1188.332936,	 15230.779058,	 661.513971,	 2.317261 
0.024841,	 0.001447,	 0.044551,	 1532.903391,	 -0.001209,	 1188.334434,	 15230.997353,	 661.514388,	 2.317264 
0.028981,	 0.001475,	 0.044552,	 1532.910618,	 -0.002203,	 1188.333703,	 15231.358147,	 661.514184,	 2.317276 
0.033122,	 0.001504,	 0.044554,	 1532.896439,	 -0.004709,	 1188.338613,	 15232.158755,	 661.515551,	 2.317249 
0.037262,	 0.001533,	 0.044540,	 1532.979478,	 0.078527,	 1188.241048,	 15225.950631,	 661.488395,	 2.317470 
0.041402,	 0.001563,	 0.044491,	 1533.274482,	 0.272787,	 1187.897136,	 15204.908948,	 661.392660,	 2.318251 
0.045542,	 0.001593,	 0.044372,	 1533.994386,	 0.665524,	 1187.057788,	 15153.513470,	 661.158955,	 2.320160 
0.049682,	 0.001624,	 0.044124,	 1535.559258,	 1.468566,	 1185.233114,	 15045.694418,	 660.650612,	 2.324315 
0.053823,	 0.001655,	 0.043583,	 1539.015907,	 3.554970,	 1181.197542,	 14810.369341,	 659.524937,	 2.333528 
0.057963,	 0.001686,	 0.042422,	 1546.419555,	 8.626838,	 1172.508469,	 14309.913733,	 657.094675,	 2.353456 
0.062103,	 0.001718,	 0.040451,	 1559.265700,	 15.691041,	 1157.305487,	 13468.071341,	 652.820765,	 2.388626 
0.066243,	 0.001749,	 0.037732,	 1577.624148,	 23.121153,	 1135.339375,	 12324.328802,	 646.595687,	 2.440155 
0.070383,	 0.001781,	 0.034466,	 1600.898212,	 29.923853,	 1107.115485,	 10977.628464,	 638.508108,	 2.507686 
0.074524,	 0.001813,	 0.030991,	 1627.281162,	 35.094640,	 1074.641562,	 9581.261244,	 629.074049,	 2.587389 
0.078664,	 0.001845,	 0.027612,	 1654.610796,	 39.250437,	 1040.457916,	 8265.220846,	 618.987976,	 2.673842 
0.082804,	 0.001877,	 0.024464,	 1681.919146,	 41.046578,	 1005.746513,	 7078.508762,	 608.575159,	 2.764523 
0.086944,	 0.001909,	 0.021685,	 1707.823210,	 41.459134,	 972.286751,	 6065.777144,	 598.366316,	 2.854984 
0.091084,	 0.001941,	 0.019284,	 1731.852005,	 42.172111,	 940.781086,	 5219.401485,	 588.591847,	 2.943237 
0.095225,	 0.001973,	 0.017205,	 1754.172741,	 42.290147,	 911.128987,	 4509.993311,	 579.241788,	 3.029275 
0.099365,	 0.002005,	 0.015415,	 1774.766965,	 41.929189,	 883.446607,	 3917.907237,	 570.374508,	 3.112450 
0.103505,	 0.002036,	 0.013866,	 1793.783566,	 41.444283,	 857.568759,	 3421.092838,	 561.958739,	 3.192872 
0.107645,	 0.002068,	 0.012527,	 1811.318580,	 40.936913,	 833.450736,	 3003.689964,	 554.000199,	 3.270362 
0.111785,	 0.002099,	 0.011369,	 1827.497137,	 40.504610,	 811.075835,	 2652.952899,	 546.513236,	 3.344742 
0.115926,	 0.002130,	 0.010357,	 1842.497467,	 39.938515,	 790.134945,	 2354.412563,	 539.411981,	 3.416554 
0.120066,	 0.002161,	 0.009465,	 1856.449222,	 39.111044,	 770.415087,	 2097.963006,	 532.638240,	 3.486158 
0.124206,	 0.002191,	 0.008686,	 1869.382566,	 38.470889,	 752.052566,	 1879.267063,	 526.252355,	 3.553007 
0.128346,	 0.002221,	 0.008001,	 1881.418892,	 37.945308,	 734.920987,	 1691.625584,	 520.223873,	 3.617292 
0.132486,	 0.002251,	 0.007391,	 1892.666316,	 37.170220,	 718.757964,	 1528.312359,	 514.471461,	 3.679565 
0.136627,	 0.002280,	 0.006847,	 1903.177086,	 36.309259,	 703.531944,	 1385.870470,	 508.993064,	 3.739783 
0.140767,	 0.002309,	 0.006366,	 1912.968971,	 35.577472,	 689.345483,	 1262.536287,	 503.835101,	 3.797472 
0.144907,	 0.002338,	 0.005941,	 1922.057937,	 34.711135,	 676.137501,	 1155.606098,	 498.984971,	 3.852564 
0.149047,	 0.002366,	 0.005562,	 1930.500947,	 33.626023,	 663.790250,	 1062.209458,	 494.407885,	 3.905265 
0.153187,	 0.002394,	 0.005216,	 1938.500629,	 33.012763,	 652.379250,	 979.022714,	 490.139861,	 3.955568 
0.157328,	 0.002422,	 0.004974,	 1945.271915,	 26.872732,	 643.470481,	 920.736007,	 486.781728,	 3.996571 
0.161468,	 0.002448,	 0.004522,	 1955.696448,	 38.419820,	 625.406067,	 813.617872,	 479.900275,	 4.076001 
0.165608,	 0.002475,	 0.003767,	 1973.358304,	 78.407741,	 600.186099,	 650.414689,	 470.124538,	 4.200835 
0.169748,	 0.002501,	 0.004345,	 1959.687984,	 -4.240719,	 620.851948,	 776.058440,	 478.149799,	 4.098491 
0.173888,	 0.002526,	 0.005937,	 1917.938183,	 -138.575129,	 676.176344,	 1154.947168,	 498.999304,	 3.853588 
0.178029,	 0.002550,	 0.006394,	 1907.347382,	 -163.744534,	 689.062148,	 1267.441183,	 503.731547,	 3.800364 
0.182169,	 0.002575,	 0.006408,	 1909.938476,	 -87.493997,	 691.997088,	 1275.665844,	 504.803186,	 3.787499 
0.186309,	 0.002598,	 0.006871,	 1905.845002,	 9.409569,	 708.052163,	 1399.620143,	 510.625596,	 3.732418 
0.190449,	 0.002621,	 0.007374,	 1898.239442,	 66.634925,	 722.481957,	 1532.763425,	 515.802516,	 3.682434 
0.194589,	 0.002643,	 0.007371,	 1894.840107,	 53.027131,	 718.490249,	 1523.687893,	 514.375640,	 3.685209 
0.198730,	 0.002664,	 0.007118,	 1898.428970,	 5.302201,	 709.104398,	 1452.175118,	 511.004875,	 3.715104 
0.202870,	 0.002685,	 0.006750,	 1904.724564,	 -16.823636,	 701.635133,	 1362.463063,	 508.306446,	 3.747344 
0.207010,	 0.002705,	 0.006491,	 1911.986569,	 -9.475911,	 689.934917,	 1288.448950,	 504.050461,	 3.793291 
0.211150,	 0.002724,	 0.006539,	 1911.510599,	 2.974473,	 692.061255,	 1301.883856,	 504.826590,	 3.786474 
0.215290,	 0.002743,	 0.006779,	 1905.561799,	 8.753023,	 701.050929,	 1367.288391,	 508.094786,	 3.750446 
0.219431,	 0.002760,	 0.006824,	 1903.711419,	 6.761749,	 701.972386,	 1378.081669,	 508.428595,	 3.744328 
0.223571,	 0.002777,	 0.006643,	 1907.526565,	 1.845644,	 696.805940,	 1331.669414,	 506.554148,	 3.765693 
0.227711,	 0.002794,	 0.006525,	 1911.016985,	 -4.470982,	 692.846633,	 1300.675374,	 505.112957,	 3.783356 
0.231851,	 0.002809,	 0.006542,	 1910.595158,	 -2.342077,	 694.432729,	 1306.895564,	 505.690790,	 3.778191 
0.235991,	 0.002824,	 0.006635,	 1908.281758,	 3.206299,	 696.733169,	 1329.977551,	 506.527696,	 3.767384 
0.240132,	 0.002839,	 0.006659,	 1907.768243,	 4.142172,	 696.179035,	 1333.632928,	 506.326227,	 3.767873 
0.244272,	 0.002852,	 0.006609,	 1908.974391,	 0.004663,	 694.394816,	 1320.386733,	 505.676986,	 3.775087 
0.248412,	 0.002866,	 0.006571,	 1909.987703,	 -2.979747,	 693.283946,	 1310.526812,	 505.272341,	 3.780120 
0.252552,	 0.002879,	 0.006577,	 1909.831320,	 -1.603018,	 694.331788,	 1313.705771,	 505.654036,	 3.776954 
0.256692,	 0.002892,	 0.006590,	 1909.458394,	 0.405437,	 694.805112,	 1317.201857,	 505.826358,	 3.774929 
0.260833,	 0.002902,	 0.006589,	 1909.480176,	 1.909843,	 694.087712,	 1315.690252,	 505.565153,	 3.776924 
0.264973,	 0.002913,	 0.006575,	 1909.875811,	 2.879551,	 693.235784,	 1311.410051,	 505.254790,	 3.780029 
0.269113,	 0.002924,	 0.006552,	 1910.419218,	 2.771679,	 692.340669,	 1304.994409,	 504.928489,	 3.783548 
0.273253,	 0.002935,	 0.006535,	 1910.819242,	 1.686556,	 691.798367,	 1300.604149,	 504.730698,	 3.785821 
0.277393,	 0.002945,	 0.006531,	 1910.926096,	 0.309869,	 691.646632,	 1299.560880,	 504.675343,	 3.786446 
0.281534,	 0.002955,	 0.006535,	 1910.843668,	 -1.298505,	 691.770959,	 1300.604944,	 504.720700,	 3.785944 
0.285674,	 0.002964,	 0.006546,	 1910.643475,	 -2.727961,	 692.260912,	 1303.596407,	 504.899405,	 3.784210 
0.289814,	 0.002971,	 0.006554,	 1910.437227,	 -3.022860,	 693.045641,	 1306.807968,	 505.185494,	 3.781660 
0.293954,	 0.002978,	 0.006550,	 1910.465359,	 -1.282391,	 693.328501,	 1306.468881,	 505.288577,	 3.780940 