TITLE = "Final State"
VARIABLES = "X", "Y", "rho", "u", "v", "T", "p", "c", "M"
ZONE I=100, J=50, DATAPACKING=POINT
0.002070,	 0.000330,	 0.043513,	 1532.880756,	 1.321794,	 1179.067430,	 14759.902101,	 658.929991,	 2.326319 
0.006210,	 0.000334,	 0.042945,	 1536.749189,	 0.745843,	 1173.964309,	 14504.275419,	 657.502488,	 2.337253 
0.010351,	 0.000340,	 0.042816,	 1537.740623,	 0.220117,	 1172.575432,	 14443.687142,	 657.113438,	 2.340145 
0.014491,	 0.000346,	 0.042824,	 1537.825369,	 0.015171,	 1172.352087,	 14443.599505,	 657.050854,	 2.340497 
0.018631,	 0.000352,	 0.042821,	 1537.982945,	 0.005557,	 1172.021639,	 14438.485330,	 656.958247,	 2.341067 
0.022771,	 0.000359,	 0.042734,	 1538.699956,	 0.099082,	 1170.961897,	 14396.137919,	 656.661169,	 2.343218 
0.026911,	 0.000365,	 0.042506,	 1540.360634,	 0.272641,	 1168.678883,	 14291.474812,	 656.020713,	 2.348037 
0.031052,	 0.000372,	 0.042081,	 1543.349986,	 0.530944,	 1164.680928,	 14100.065649,	 654.897655,	 2.356628 
0.035192,	 0.000380,	 0.041410,	 1548.003176,	 0.876600,	 1158.531733,	 13802.066882,	 653.166527,	 2.369998 
0.039332,	 0.000387,	 0.040468,	 1554.526823,	 1.299627,	 1149.945080,	 13388.050737,	 650.741499,	 2.388855 
0.043472,	 0.000395,	 0.039257,	 1562.957835,	 1.779516,	 1138.832698,	 12861.824843,	 647.589677,	 2.413502 
0.047612,	 0.000402,	 0.037806,	 1573.170315,	 2.291115,	 1125.300735,	 12239.341512,	 643.730750,	 2.443835 
0.051753,	 0.000410,	 0.036164,	 1584.922309,	 2.811181,	 1109.598292,	 11544.373401,	 639.223663,	 2.479453 
0.055893,	 0.000418,	 0.034387,	 1597.909817,	 3.320447,	 1092.068601,	 10803.805041,	 634.154260,	 2.519755 
0.060033,	 0.000426,	 0.032532,	 1611.817363,	 3.805202,	 1073.083354,	 10043.233090,	 628.617812,	 2.564073 
0.064173,	 0.000433,	 0.030650,	 1626.335353,	 4.253707,	 1053.028286,	 9285.408826,	 622.715925,	 2.611690 
0.068313,	 0.000441,	 0.028784,	 1641.189840,	 4.659556,	 1032.256269,	 8548.189112,	 616.543492,	 2.661931 
0.072454,	 0.000449,	 0.026969,	 1656.145605,	 5.019048,	 1011.083737,	 7844.733422,	 610.187794,	 2.714170 
0.076594,	 0.000457,	 0.025227,	 1671.014122,	 5.331904,	 989.774781,	 7183.521204,	 603.723589,	 2.767860 
0.080734,	 0.000465,	 0.023576,	 1685.648120,	 5.599564,	 968.546087,	 6569.305602,	 597.214164,	 2.822534 
0.084874,	 0.000473,	 0.022024,	 1699.937512,	 5.824305,	 947.564853,	 6003.903588,	 590.710139,	 2.877803 
0.089014,	 0.000481,	 0.020576,	 1713.801031,	 6.008550,	 926.962743,	 5487.111390,	 584.253191,	 2.933337 
0.093155,	 0.000489,	 0.019231,	 1727.183886,	 6.155823,	 906.836549,	 5017.181157,	 577.875738,	 2.988869 
0.097295,	 0.000497,	 0.017988,	 1740.047208,	 6.268627,	 887.263539,	 4591.639358,	 571.605332,	 3.044161 
0.101435,	 0.000505,	 0.016843,	 1752.369636,	 6.350257,	 868.295818,	 4207.367196,	 565.462499,	 3.099023 
0.105575,	 0.000513,	 0.015790,	 1764.139274,	 6.403137,	 849.972553,	 3861.110640,	 559.464333,	 3.153286 
0.109715,	 0.000521,	 0.014824,	 1775.353910,	 6.429879,	 832.317781,	 3549.523266,	 553.623530,	 3.206810 
0.113855,	 0.000529,	 0.013938,	 1786.017471,	 6.432900,	 815.345470,	 3269.355487,	 547.949815,	 3.259476 
0.117996,	 0.000536,	 0.013126,	 1796.137523,	 6.414017,	 799.063278,	 3017.563230,	 542.451032,	 3.311173 
0.122136,	 0.000544,	 0.012384,	 1805.725143,	 6.374960,	 783.472004,	 2791.297814,	 537.132826,	 3.361806 
0.126276,	 0.000552,	 0.011704,	 1814.793465,	 6.317277,	 768.567778,	 2587.943777,	 531.999274,	 3.411291 
0.130416,	 0.000559,	 0.011083,	 1823.357037,	 6.242666,	 754.342622,	 2405.117951,	 527.052985,	 3.459553 
0.134556,	 0.000566,	 0.010514,	 1831.430234,	 6.152548,	 740.786359,	 2240.682007,	 522.295690,	 3.506521 
0.138697,	 0.000574,	 0.009993,	 1839.028353,	 6.047652,	 727.887026,	 2092.704676,	 517.728345,	 3.552130 
0.142837,	 0.000581,	 0.009517,	 1846.165823,	 5.928630,	 715.632749,	 1959.479567,	 513.351762,	 3.596316 
0.146977,	 0.000588,	 0.009082,	 1852.856409,	 5.796011,	 704.011307,	 1839.492216,	 509.166440,	 3.639017 
0.151117,	 0.000595,	 0.008684,	 1859.113405,	 5.650407,	 693.009568,	 1731.389175,	 505.172347,	 3.680174 
0.155257,	 0.000602,	 0.008320,	 1864.949584,	 5.492731,	 682.613357,	 1633.956446,	 501.368846,	 3.719732 
0.159398,	 0.000609,	 0.007988,	 1870.376087,	 5.323415,	 672.810135,	 1546.138704,	 497.755670,	 3.757634 
0.163538,	 0.000615,	 0.007684,	 1875.403286,	 5.142996,	 663.586954,	 1466.994472,	 494.332169,	 3.793826 
0.167678,	 0.000622,	 0.007407,	 1880.040798,	 4.952283,	 654.930275,	 1395.680165,	 491.097233,	 3.828259 
0.171818,	 0.000628,	 0.007155,	 1884.296966,	 4.751972,	 646.827249,	 1331.453921,	 488.049764,	 3.860883 
0.175959,	 0.000635,	 0.006925,	 1888.179186,	 4.542887,	 639.264908,	 1273.654953,	 485.188374,	 3.891653 
0.180099,	 0.000641,	 0.006717,	 1891.693948,	 4.326029,	 632.230042,	 1221.693107,	 482.511332,	 3.920527 
0.184239,	 0.000647,	 0.006528,	 1894.846633,	 4.102332,	 625.709752,	 1175.047308,	 480.016776,	 3.947468 
0.188379,	 0.000652,	 0.006357,	 1897.642010,	 3.873109,	 619.690121,	 1133.244521,	 477.702198,	 3.972446 
0.192519,	 0.000658,	 0.006202,	 1900.083919,	 3.639696,	 614.157122,	 1095.863533,	 475.564798,	 3.995433 
0.196660,	 0.000663,	 0.006063,	 1902.175454,	 3.403560,	 609.096123,	 1062.524956,	 473.601284,	 4.016413 
0.200800,	 0.000669,	 0.005939,	 1903.919222,	 3.166440,	 604.491393,	 1032.882180,	 471.807689,	 4.035377 
0.204940,	 0.000674,	 0.005828,	 1905.317152,	 2.930089,	 600.326626,	 1006.622179,	 470.179572,	 4.052323 
0.209080,	 0.000679,	 0.005730,	 1906.370633,	 2.696346,	 596.584544,	 983.458316,	 468.711870,	 4.067259 
0.213220,	 0.000683,	 0.005643,	 1907.080336,	 2.467084,	 593.246898,	 963.126684,	 467.398906,	 4.080202 
0.217361,	 0.000688,	 0.005567,	 1907.447324,	 2.244490,	 590.293660,	 945.377339,	 466.234077,	 4.091182 
0.221501,	 0.000692,	 0.005500,	 1907.473079,	 2.030667,	 587.703901,	 929.978227,	 465.210213,	 4.100241 
0.225641,	 0.000696,	 0.005443,	 1907.157328,	 1.827257,	 585.456821,	 916.716989,	 464.319998,	 4.107422 
0.229781,	 0.000700,	 0.005393,	 1906.500484,	 1.636008,	 583.530268,	 905.389604,	 463.555403,	 4.112780 
0.233921,	 0.000704,	 0.005351,	 1905.507964,	 1.458601,	 581.900475,	 895.799236,	 462.907598,	 4.116391 
0.238061,	 0.000708,	 0.005315,	 1904.174784,	 1.295821,	 580.546786,	 887.771003,	 462.368848,	 4.118303 
0.242202,	 0.000711,	 0.005286,	 1902.504593,	 1.148721,	 579.445972,	 881.129268,	 461.930276,	 4.118598 
0.246342,	 0.000715,	 0.005261,	 1900.517256,	 1.017593,	 578.572938,	 875.702530,	 461.582156,	 4.117398 
0.250482,	 0.000718,	 0.005241,	 1898.227171,	 0.902495,	 577.906162,	 871.337909,	 461.316105,	 4.114808 
0.254622,	 0.000721,	 0.005224,	 1895.636707,	 0.803571,	 577.427479,	 867.895076,	 461.125010,	 4.110896 
0.258763,	 0.000724,	 0.005211,	 1892.720917,	 0.721820,	 577.123267,	 865.246313,	 461.003524,	 4.105654 
0.262903,	 0.000727,	 0.005201,	 1889.527426,	 0.655431,	 576.970618,	 863.249466,	 460.942553,	 4.099269 
0.267043,	 0.000730,	 0.005192,	 1886.066118,	 0.603664,	 576.955794,	 861.789578,	 460.936631,	 4.091812 
0.271183,	 0.000732,	 0.005185,	 1882.339523,	 0.565922,	 577.068050,	 860.762718,	 460.981470,	 4.083330 
0.275323,	 0.000735,	 0.005179,	 1878.348315,	 0.541432,	 577.298872,	 860.074303,	 461.073655,	 4.073858 
0.279463,	 0.000737,	 0.005173,	 1874.096843,	 0.528995,	 577.641508,	 859.638754,	 461.210462,	 4.063431 
0.283604,	 0.000740,	 0.005167,	 1869.586810,	 0.527343,	 578.091915,	 859.381866,	 461.390238,	 4.052073 
0.287744,	 0.000742,	 0.005161,	 1864.760862,	 0.537405,	 578.655201,	 859.251240,	 461.614970,	 4.039646 
0.291884,	 0.000744,	 0.005155,	 1859.716634,	 0.552948,	 579.319844,	 859.170824,	 461.879999,	 4.026407 
0.296024,	 0.000746,	 0.005148,	 1854.480549,	 0.572317,	 580.086387,	 859.099879,	 462.185473,	 4.012417 
0.300165,	 0.000747,	 0.005140,	 1849.028213,	 0.596066,	 580.962648,	 859.016909,	 462.534423,	 3.997602 
0.304305,	 0.000749,	 0.005130,	 1843.358645,	 0.623135,	 581.954103,	 858.900826,	 462.928928,	 3.981948 
0.308445,	 0.000751,	 0.005119,	 1837.488563,	 0.651671,	 583.064824,	 858.735658,	 463.370492,	 3.965485 
0.312585,	 0.000753,	 0.005107,	 1831.433054,	 0.680138,	 584.299649,	 858.515428,	 463.860900,	 3.948238 
0.316725,	 0.000754,	 0.005094,	 1825.175305,	 0.708431,	 585.667547,	 858.247818,	 464.403553,	 3.930150 
0.320866,	 0.000755,	 0.005079,	 1818.717464,	 0.735366,	 587.174334,	 857.940084,	 465.000570,	 3.911216 
0.325006,	 0.000757,	 0.005063,	 1812.134329,	 0.756787,	 588.817005,	 857.600002,	 465.650555,	 3.891619 
0.329146,	 0.000758,	 0.005045,	 1805.467534,	 0.771393,	 590.596656,	 857.254545,	 466.353720,	 3.871456 
0.333286,	 0.000759,	 0.005027,	 1798.705299,	 0.780781,	 592.518666,	 856.937008,	 467.111943,	 3.850695 
0.337426,	 0.000760,	 0.005008,	 1791.858175,	 0.784235,	 594.584919,	 856.682932,	 467.925700,	 3.829365 
0.341566,	 0.000761,	 0.004989,	 1784.944504,	 0.780613,	 596.795913,	 856.534397,	 468.794895,	 3.807517 
0.345707,	 0.000762,	 0.004969,	 1777.972426,	 0.769684,	 599.152272,	 856.537249,	 469.719466,	 3.785180 
0.349847,	 0.000763,	 0.004950,	 1770.954107,	 0.750496,	 601.654602,	 856.746447,	 470.699324,	 3.762390 
0.353987,	 0.000764,	 0.004931,	 1763.893593,	 0.723285,	 604.302679,	 857.214438,	 471.734037,	 3.739170 
0.358127,	 0.000764,	 0.004912,	 1756.796136,	 0.687393,	 607.096995,	 858.001937,	 472.823437,	 3.715544 
0.362267,	 0.000765,	 0.004896,	 1749.667230,	 0.641349,	 610.041136,	 859.188058,	 473.968538,	 3.691526 
0.366408,	 0.000765,	 0.004880,	 1742.515219,	 0.585086,	 613.136848,	 860.848315,	 475.169615,	 3.667144 
0.370548,	 0.000766,	 0.004867,	 1735.381279,	 0.518336,	 616.376600,	 863.039025,	 476.423335,	 3.642520 
0.374688,	 0.000766,	 0.004856,	 1728.306179,	 0.439126,	 619.756571,	 865.838234,	 477.727810,	 3.617764 
0.378828,	 0.000767,	 0.004848,	 1721.330147,	 0.345662,	 623.275997,	 869.341086,	 479.082332,	 3.592974 
0.382969,	 0.000767,	 0.004844,	 1714.481363,	 0.237866,	 626.936768,	 873.647897,	 480.487201,	 3.568214 
0.387109,	 0.000768,	 0.004843,	 1707.737418,	 0.118145,	 630.750263,	 878.865249,	 481.946326,	 3.543418 
0.391249,	 0.000768,	 0.004847,	 1701.128867,	 -0.014125,	 634.719037,	 885.094057,	 483.460187,	 3.518653 
0.395389,	 0.000768,	 0.004856,	 1694.907702,	 -0.168580,	 638.805980,	 892.423747,	 485.014185,	 3.494553 
0.399529,	 0.000768,	 0.004870,	 1688.989091,	 -0.335240,	 643.035361,	 900.982648,	 486.617117,	 3.470879 
0.403670,	 0.000768,	 0.004890,	 1683.420392,	 -0.513908,	 647.405346,	 910.874086,	 488.267811,	 3.447740 
0.407810,	 0.000768,	 0.004917,	 1678.243334,	 -0.703295,	 651.913546,	 922.197468,	 489.964885,	 3.425232 
0.411950,	 0.000768,	 0.004950,	 1673.484927,	 -0.900862,	 656.557664,	 935.043496,	 491.707000,	 3.403419 
0.002070,	 0.000989,	 0.043710,	 1532.876856,	 3.601081,	 1170.524140,	 14719.305989,	 656.538413,	 2.334793 
0.006210,	 0.001002,	 0.043252,	 1535.980074,	 2.031008,	 1166.137279,	 14510.448617,	 655.306979,	 2.343911 
0.010351,	 0.001019,	 0.043146,	 1536.803465,	 0.628495,	 1164.474471,	 14454.279240,	 654.839607,	 2.346840 
0.014491,	 0.001037,	 0.043158,	 1536.858059,	 0.072610,	 1163.723130,	 14449.040749,	 654.628316,	 2.347680 
0.018631,	 0.001056,	 0.043162,	 1536.971820,	 0.045583,	 1162.869318,	 14439.751274,	 654.388125,	 2.348716 
0.022771,	 0.001076,	 0.043085,	 1537.619116,	 0.316321,	 1161.338099,	 14394.954114,	 653.957147,	 2.351254 
0.026911,	 0.001096,	 0.042866,	 1539.196399,	 0.829130,	 1158.635344,	 14288.486019,	 653.195734,	 2.356409 
0.031052,	 0.001117,	 0.042446,	 1542.093676,	 1.598993,	 1154.279973,	 14095.274010,	 651.966880,	 2.365296 
0.035192,	 0.001139,	 0.041775,	 1546.643190,	 2.632699,	 1147.855212,	 13795.400522,	 650.149913,	 2.378906 
0.039332,	 0.001161,	 0.040828,	 1553.046299,	 3.900174,	 1139.094916,	 13379.632291,	 647.664228,	 2.397926 
0.043472,	 0.001184,	 0.039606,	 1561.336830,	 5.339854,	 1127.924382,	 12851.997699,	 644.480744,	 2.422642 
0.047612,	 0.001206,	 0.038140,	 1571.389946,	 6.875343,	 1114.455451,	 12228.590207,	 640.621205,	 2.452939 
0.051753,	 0.001230,	 0.036480,	 1582.966761,	 8.435609,	 1098.918401,	 11533.237140,	 636.139959,	 2.488429 
0.055893,	 0.001253,	 0.034684,	 1595.766911,	 9.963738,	 1081.622091,	 10792.775715,	 631.113875,	 2.528542 
0.060033,	 0.001277,	 0.032809,	 1609.478797,	 11.418181,	 1062.911412,	 10032.708358,	 625.631329,	 2.572632 
0.064173,	 0.001300,	 0.030908,	 1623.797817,	 12.763957,	 1043.160544,	 9275.669492,	 619.791377,	 2.619991 
0.068313,	 0.001324,	 0.029023,	 1638.454552,	 13.981585,	 1022.713004,	 8539.395370,	 613.686886,	 2.669951 
0.072454,	 0.001348,	 0.027190,	 1653.217808,	 15.060219,	 1001.878464,	 7836.949491,	 607.403757,	 2.721890 
0.076594,	 0.001372,	 0.025431,	 1667.902152,	 15.999000,	 980.915446,	 7176.740443,	 601.015594,	 2.775267 
0.080734,	 0.001396,	 0.023764,	 1682.362893,	 16.802028,	 960.033821,	 6563.470954,	 594.584002,	 2.829620 
0.084874,	 0.001420,	 0.022197,	 1696.491586,	 17.476066,	 939.397067,	 5998.940866,	 588.158738,	 2.884564 
0.089014,	 0.001444,	 0.020735,	 1710.208338,	 18.028501,	 919.134746,	 5482.940103,	 581.781016,	 2.939772 
0.093155,	 0.001468,	 0.019378,	 1723.459322,	 18.469784,	 899.341381,	 5013.716791,	 575.482659,	 2.994979 
0.097295,	 0.001492,	 0.018123,	 1736.206798,	 18.807603,	 880.093346,	 4588.801454,	 569.291006,	 3.049949 
0.101435,	 0.001515,	 0.016968,	 1748.430182,	 19.051686,	 861.441504,	 4205.079781,	 563.226201,	 3.104497 
0.105575,	 0.001539,	 0.015905,	 1760.118517,	 19.209388,	 843.424624,	 3859.305540,	 557.305195,	 3.158455 
0.109715,	 0.001562,	 0.014930,	 1771.270398,	 19.288465,	 826.066228,	 3548.139571,	 551.540473,	 3.211687 
0.113855,	 0.001586,	 0.014036,	 1781.890561,	 19.296122,	 809.379907,	 3268.339361,	 545.941568,	 3.264076 
0.117996,	 0.001609,	 0.013217,	 1791.987533,	 19.237865,	 793.373339,	 3016.868176,	 540.516249,	 3.315517 
0.122136,	 0.001632,	 0.012468,	 1801.573346,	 19.118860,	 778.047317,	 2790.883728,	 535.270068,	 3.365917 
0.126276,	 0.001655,	 0.011783,	 1810.661815,	 18.943924,	 763.397473,	 2587.777270,	 530.206823,	 3.415197 
0.130416,	 0.001677,	 0.011156,	 1819.267666,	 18.718203,	 749.414249,	 2405.172321,	 525.328457,	 3.463288 
0.134556,	 0.001699,	 0.010582,	 1827.407115,	 18.444124,	 736.088699,	 2240.934761,	 520.637000,	 3.510124 
0.138697,	 0.001721,	 0.010057,	 1835.096656,	 18.124982,	 723.408825,	 2093.135233,	 516.133270,	 3.555644 
0.142837,	 0.001743,	 0.009577,	 1842.352143,	 17.763130,	 711.362887,	 1960.069146,	 511.818000,	 3.599791 
0.146977,	 0.001764,	 0.009139,	 1849.188973,	 17.360303,	 699.938918,	 1840.223965,	 507.691655,	 3.642507 
0.151117,	 0.001785,	 0.008737,	 1855.622241,	 16.918337,	 689.123962,	 1732.247932,	 503.754141,	 3.683740 
0.155257,	 0.001806,	 0.008371,	 1861.666676,	 16.439854,	 678.903740,	 1634.928326,	 500.004663,	 3.723444 
0.159398,	 0.001826,	 0.008036,	 1867.335847,	 15.926265,	 669.265948,	 1547.210975,	 496.442916,	 3.761568 
0.163538,	 0.001846,	 0.007730,	 1872.642927,	 15.379194,	 660.197786,	 1468.155166,	 493.068190,	 3.798067 
0.167678,	 0.001866,	 0.007451,	 1877.600694,	 14.800968,	 651.685627,	 1396.917741,	 489.879228,	 3.832902 
0.171818,	 0.001885,	 0.007197,	 1882.221212,	 14.193696,	 643.716636,	 1332.757013,	 486.874826,	 3.866034 
0.175959,	 0.001904,	 0.006965,	 1886.516156,	 13.559817,	 636.277782,	 1275.012102,	 484.053465,	 3.897431 
0.180099,	 0.001922,	 0.006755,	 1890.496885,	 12.902259,	 629.355673,	 1223.092574,	 481.413239,	 3.927065 
0.184239,	 0.001940,	 0.006565,	 1894.174407,	 12.223848,	 622.937385,	 1176.476814,	 478.952177,	 3.954912 
0.188379,	 0.001957,	 0.006392,	 1897.559778,	 11.528353,	 617.008684,	 1134.691155,	 476.667554,	 3.980961 
0.192519,	 0.001974,	 0.006237,	 1900.663922,	 10.819706,	 611.555296,	 1097.313642,	 474.556383,	 4.005203 
0.196660,	 0.001990,	 0.006097,	 1903.497860,	 10.102201,	 606.562337,	 1063.964012,	 472.615188,	 4.027642 
0.200800,	 0.002006,	 0.005972,	 1906.072857,	 9.380829,	 602.013567,	 1034.294876,	 470.839720,	 4.048290 
0.204940,	 0.002021,	 0.005860,	 1908.400346,	 8.660695,	 597.892239,	 1007.992428,	 469.225290,	 4.067172 
0.209080,	 0.002036,	 0.005761,	 1910.492096,	 7.947141,	 594.180604,	 984.769225,	 467.766579,	 4.084320 
0.213220,	 0.002050,	 0.005673,	 1912.360333,	 7.245586,	 590.860052,	 964.360468,	 466.457701,	 4.099780 
0.217361,	 0.002064,	 0.005596,	 1914.017524,	 6.562232,	 587.909191,	 946.516116,	 465.291457,	 4.113613 
0.221501,	 0.002077,	 0.005529,	 1915.475871,	 5.903210,	 585.305029,	 931.004702,	 464.259801,	 4.125890 
0.225641,	 0.002089,	 0.005471,	 1916.748569,	 5.273264,	 583.026128,	 917.613451,	 463.355116,	 4.136689 
0.229781,	 0.002101,	 0.005421,	 1917.848908,	 4.677356,	 581.048755,	 906.138754,	 462.568698,	 4.146097 
0.233921,	 0.002113,	 0.005378,	 1918.788202,	 4.120694,	 579.344886,	 896.386999,	 461.889981,	 4.154220 
0.238061,	 0.002124,	 0.005342,	 1919.584065,	 3.604857,	 577.896685,	 888.180333,	 461.312322,	 4.161145 
0.242202,	 0.002134,	 0.005312,	 1920.249862,	 3.133334,	 576.678574,	 881.346321,	 460.825880,	 4.166980 
0.246342,	 0.002144,	 0.005288,	 1920.795228,	 2.708836,	 575.660777,	 875.722396,	 460.419038,	 4.171846 
0.250482,	 0.002154,	 0.005268,	 1921.232649,	 2.331241,	 574.822472,	 871.157410,	 460.083674,	 4.175836 
0.254622,	 0.002164,	 0.005252,	 1921.577106,	 2.000551,	 574.144046,	 867.507611,	 459.812090,	 4.179051 
0.258763,	 0.002173,	 0.005239,	 1921.848563,	 1.715940,	 573.613477,	 864.636887,	 459.599584,	 4.181573 
0.262903,	 0.002181,	 0.005230,	 1922.047172,	 1.478799,	 573.195898,	 862.423558,	 459.432264,	 4.183528 
0.267043,	 0.002189,	 0.005223,	 1922.184319,	 1.286247,	 572.872346,	 860.751656,	 459.302578,	 4.185008 
0.271183,	 0.002197,	 0.005217,	 1922.271683,	 1.135175,	 572.626936,	 859.515485,	 459.204188,	 4.186094 
0.275323,	 0.002205,	 0.005214,	 1922.319648,	 1.022376,	 572.445209,	 858.620319,	 459.131316,	 4.186863 
0.279463,	 0.002212,	 0.005211,	 1922.336534,	 0.944423,	 572.313285,	 857.982718,	 459.078408,	 4.187382 
0.283604,	 0.002219,	 0.005209,	 1922.329830,	 0.897444,	 572.219402,	 857.529855,	 459.040753,	 4.187711 
0.287744,	 0.002225,	 0.005208,	 1922.312460,	 0.876693,	 572.162398,	 857.196747,	 459.017888,	 4.187882 
0.291884,	 0.002231,	 0.005206,	 1922.276938,	 0.880269,	 572.118507,	 856.939880,	 459.000281,	 4.187965 
0.296024,	 0.002237,	 0.005205,	 1922.226766,	 0.902372,	 572.078851,	 856.715760,	 458.984374,	 4.188001 
0.300165,	 0.002242,	 0.005204,	 1922.169212,	 0.937374,	 572.043246,	 856.489542,	 458.970090,	 4.188006 
0.304305,	 0.002248,	 0.005203,	 1922.107011,	 0.981463,	 572.009627,	 856.239855,	 458.956603,	 4.187993 
0.308445,	 0.002253,	 0.005202,	 1922.040435,	 1.031170,	 571.975320,	 855.954967,	 458.942840,	 4.187974 
0.312585,	 0.002258,	 0.005200,	 1921.969377,	 1.082784,	 571.939398,	 855.630540,	 458.928428,	 4.187951 
0.316725,	 0.002262,	 0.005198,	 1921.894515,	 1.132235,	 571.905611,	 855.268662,	 458.914872,	 4.187911 
0.320866,	 0.002266,	 0.005196,	 1921.811257,	 1.175911,	 571.878906,	 854.881172,	 458.904158,	 4.187828 
0.325006,	 0.002270,	 0.005194,	 1921.715441,	 1.212409,	 571.855835,	 854.487262,	 458.894901,	 4.187704 
0.329146,	 0.002273,	 0.005192,	 1921.608954,	 1.239253,	 571.835127,	 854.107544,	 458.886592,	 4.187547 
0.333286,	 0.002277,	 0.005190,	 1921.486378,	 1.251552,	 571.827224,	 853.770094,	 458.883421,	 4.187309 
0.337426,	 0.002280,	 0.005188,	 1921.342302,	 1.246768,	 571.840186,	 853.510428,	 458.888622,	 4.186948 
0.341566,	 0.002283,	 0.005187,	 1921.173667,	 1.223302,	 571.880250,	 853.368583,	 458.904697,	 4.186434 
0.345707,	 0.002286,	 0.005186,	 1920.973407,	 1.178609,	 571.957553,	 853.390347,	 458.935712,	 4.185714 
0.349847,	 0.002289,	 0.005187,	 1920.741352,	 1.111755,	 572.078116,	 853.624557,	 458.984079,	 4.184768 
0.353987,	 0.002291,	 0.005188,	 1920.466057,	 1.019606,	 572.255948,	 854.128285,	 459.055411,	 4.183517 
0.358127,	 0.002293,	 0.005191,	 1920.137255,	 0.899934,	 572.504410,	 854.962633,	 459.155057,	 4.181893 
0.362267,	 0.002295,	 0.005195,	 1919.765755,	 0.753992,	 572.825148,	 856.188005,	 459.283656,	 4.179913 
0.366408,	 0.002296,	 0.005202,	 1919.359672,	 0.581444,	 573.222082,	 857.873360,	 459.442757,	 4.177582 
0.370548,	 0.002298,	 0.005211,	 1918.896737,	 0.376997,	 573.716087,	 860.103330,	 459.640689,	 4.174776 
0.374688,	 0.002299,	 0.005223,	 1918.359505,	 0.136809,	 574.325846,	 862.963803,	 459.884883,	 4.171391 
0.378828,	 0.002301,	 0.005238,	 1917.739178,	 -0.140799,	 575.065615,	 866.543139,	 460.180969,	 4.167359 
0.382969,	 0.002302,	 0.005256,	 1917.026359,	 -0.457037,	 575.951186,	 870.934854,	 460.535159,	 4.162606 
0.387109,	 0.002303,	 0.005279,	 1916.210240,	 -0.812458,	 577.001514,	 876.234386,	 460.954893,	 4.157045 
0.391249,	 0.002303,	 0.005305,	 1915.280611,	 -1.205508,	 578.232911,	 882.544058,	 461.446500,	 4.150602 
0.395389,	 0.002303,	 0.005337,	 1914.232390,	 -1.633954,	 579.650536,	 889.982428,	 462.011807,	 4.143256 
0.399529,	 0.002304,	 0.005374,	 1913.055453,	 -2.099447,	 581.274762,	 898.643248,	 462.658651,	 4.134920 
0.403670,	 0.002304,	 0.005416,	 1911.741439,	 -2.597552,	 583.119274,	 908.631841,	 463.392128,	 4.125541 
0.407810,	 0.002305,	 0.005465,	 1910.283538,	 -3.122899,	 585.195491,	 920.046337,	 464.216357,	 4.115077 
0.411950,	 0.002305,	 0.005520,	 1908.676671,	 -3.668586,	 587.512249,	 932.973509,	 465.134354,	 4.103503 
0.002070,	 0.001648,	 0.044237,	 1532.880887,	 4.425815,	 1149.883407,	 14634.064985,	 650.724048,	 2.355664 
0.006210,	 0.001670,	 0.043983,	 1534.588394,	 2.659114,	 1147.243347,	 14516.826814,	 649.976608,	 2.360994 
0.010351,	 0.001698,	 0.043896,	 1535.240998,	 0.921982,	 1145.842268,	 14470.446786,	 649.579593,	 2.363438 
0.014491,	 0.001728,	 0.043888,	 1535.395727,	 0.174224,	 1145.029985,	 14457.391062,	 649.349310,	 2.364514 
0.018631,	 0.001759,	 0.043872,	 1535.597859,	 0.138710,	 1144.142863,	 14441.107355,	 649.097717,	 2.365742 
0.022771,	 0.001793,	 0.043780,	 1536.291557,	 0.570262,	 1142.643554,	 14391.769306,	 648.672282,	 2.368363 
0.026911,	 0.001827,	 0.043545,	 1537.890506,	 1.413894,	 1140.005470,	 14281.619390,	 647.923036,	 2.373571 
0.031052,	 0.001862,	 0.043107,	 1540.792396,	 2.695157,	 1135.721782,	 14084.613334,	 646.704572,	 2.382533 
0.035192,	 0.001898,	 0.042414,	 1545.323861,	 4.419460,	 1129.367030,	 13780.818810,	 644.892767,	 2.396259 
0.039332,	 0.001935,	 0.041442,	 1551.675557,	 6.532816,	 1120.676258,	 13361.461493,	 642.406667,	 2.415432 
0.043472,	 0.001973,	 0.040195,	 1559.872853,	 8.931234,	 1109.581606,	 12831.044599,	 639.218856,	 2.440320 
0.047612,	 0.002011,	 0.038703,	 1569.788279,	 11.487118,	 1096.207860,	 12205.929197,	 635.354938,	 2.470793 
0.051753,	 0.002049,	 0.037016,	 1581.187315,	 14.081322,	 1080.810682,	 11509.982374,	 630.877106,	 2.506431 
0.055893,	 0.002088,	 0.035193,	 1593.778509,	 16.619648,	 1063.716442,	 10769.921534,	 625.868205,	 2.546647 
0.060033,	 0.002128,	 0.033290,	 1607.259469,	 19.033081,	 1045.271666,	 10011.041185,	 620.418219,	 2.590788 
0.064173,	 0.002167,	 0.031362,	 1621.334673,	 21.263986,	 1025.845394,	 9255.735422,	 614.625975,	 2.638148 
0.068313,	 0.002207,	 0.029450,	 1635.742526,	 23.280816,	 1005.768088,	 8521.494895,	 608.581687,	 2.688067 
0.072454,	 0.002247,	 0.027590,	 1650.258483,	 25.066138,	 985.339132,	 7821.194940,	 602.369285,	 2.739929 
0.076594,	 0.002287,	 0.025807,	 1664.702163,	 26.618914,	 964.803800,	 7163.095821,	 596.059283,	 2.793204 
0.080734,	 0.002327,	 0.024115,	 1678.932421,	 27.945631,	 944.360337,	 6551.811838,	 589.710449,	 2.847440 
0.084874,	 0.002367,	 0.022526,	 1692.842653,	 29.057777,	 924.165502,	 5989.108449,	 583.370992,	 2.902256 
0.089014,	 0.002407,	 0.021043,	 1706.354261,	 29.967869,	 904.344501,	 5474.760224,	 577.081171,	 2.957326 
0.093155,	 0.002446,	 0.019666,	 1719.413563,	 30.693628,	 884.985977,	 5007.008948,	 570.871219,	 3.012391 
0.097295,	 0.002486,	 0.018393,	 1731.983224,	 31.247690,	 866.164986,	 4583.394409,	 564.768239,	 3.067214 
0.101435,	 0.002526,	 0.017220,	 1744.042079,	 31.646389,	 847.928978,	 4200.813575,	 558.791373,	 3.121611 
0.105575,	 0.002565,	 0.016142,	 1755.578895,	 31.901791,	 830.316122,	 3856.036815,	 552.957418,	 3.175414 
0.109715,	 0.002604,	 0.015153,	 1766.591499,	 32.026828,	 813.348452,	 3545.741019,	 547.278360,	 3.228488 
0.113855,	 0.002643,	 0.014246,	 1777.083736,	 32.033477,	 797.038303,	 3266.699033,	 541.763260,	 3.280718 
0.117996,	 0.002682,	 0.013416,	 1787.063519,	 31.930746,	 781.393481,	 3015.889423,	 536.419856,	 3.331996 
0.122136,	 0.002720,	 0.012656,	 1796.542113,	 31.727189,	 766.414614,	 2790.483516,	 531.253547,	 3.382231 
0.126276,	 0.002758,	 0.011960,	 1805.532933,	 31.430355,	 752.098115,	 2587.884827,	 526.268291,	 3.431342 
0.130416,	 0.002795,	 0.011324,	 1814.050169,	 31.048566,	 738.435381,	 2405.730123,	 521.466246,	 3.479258 
0.134556,	 0.002832,	 0.010742,	 1822.109328,	 30.586522,	 725.417369,	 2241.892549,	 516.849295,	 3.525914 
0.138697,	 0.002869,	 0.010210,	 1829.726003,	 30.049790,	 713.031372,	 2094.449380,	 512.417877,	 3.571251 
0.142837,	 0.002905,	 0.009723,	 1836.915489,	 29.442211,	 701.265785,	 1961.701870,	 508.172640,	 3.615211 
0.146977,	 0.002940,	 0.009278,	 1843.692851,	 28.766574,	 690.109232,	 1842.142556,	 504.114132,	 3.657738 
0.151117,	 0.002975,	 0.008872,	 1850.072758,	 28.025923,	 679.548994,	 1734.423888,	 500.242217,	 3.698778 
0.155257,	 0.003010,	 0.008500,	 1856.069014,	 27.224717,	 669.569939,	 1637.336591,	 496.555649,	 3.738289 
0.159398,	 0.003044,	 0.008160,	 1861.695063,	 26.365206,	 660.160391,	 1549.828873,	 493.054226,	 3.776221 
0.163538,	 0.003077,	 0.007850,	 1866.963893,	 25.450086,	 651.307927,	 1470.961953,	 489.737247,	 3.812529 
0.167678,	 0.003110,	 0.007568,	 1871.887696,	 24.483294,	 642.998489,	 1399.894263,	 486.603166,	 3.847176 
0.171818,	 0.003141,	 0.007310,	 1876.478319,	 23.468319,	 635.219339,	 1335.884892,	 483.650687,	 3.880125 
0.175959,	 0.003173,	 0.007076,	 1880.747194,	 22.409218,	 627.957409,	 1278.273379,	 480.878154,	 3.911346 
0.180099,	 0.003203,	 0.006863,	 1884.705279,	 21.310841,	 621.198991,	 1226.469483,	 478.283418,	 3.940814 
0.184239,	 0.003233,	 0.006670,	 1888.363747,	 20.177838,	 614.931550,	 1179.950991,	 475.864537,	 3.968507 
0.188379,	 0.003262,	 0.006495,	 1891.733204,	 19.016409,	 609.140409,	 1138.244021,	 473.618501,	 3.994415 
0.192519,	 0.003290,	 0.006338,	 1894.824455,	 17.832980,	 603.811276,	 1100.925882,	 471.542197,	 4.018534 
0.196660,	 0.003317,	 0.006196,	 1897.648544,	 16.634555,	 598.929409,	 1067.615396,	 469.632099,	 4.040868 
0.200800,	 0.003343,	 0.006069,	 1900.216265,	 15.429194,	 594.478279,	 1037.964737,	 467.883736,	 4.061434 
0.204940,	 0.003369,	 0.005956,	 1902.538961,	 14.225146,	 590.441339,	 1011.659370,	 466.292394,	 4.080256 
0.209080,	 0.003393,	 0.005855,	 1904.628457,	 13.031037,	 586.801268,	 988.411196,	 464.852826,	 4.097368 
0.213220,	 0.003417,	 0.005766,	 1906.497371,	 11.855652,	 583.540223,	 967.954725,	 463.559357,	 4.112816 
0.217361,	 0.003439,	 0.005687,	 1908.157047,	 10.708703,	 580.636606,	 950.040981,	 462.404615,	 4.126661 
0.221501,	 0.003461,	 0.005619,	 1909.618249,	 9.599928,	 578.067230,	 934.439999,	 461.380387,	 4.138976 
0.225641,	 0.003482,	 0.005559,	 1910.894861,	 8.537238,	 575.811981,	 920.938999,	 460.479502,	 4.149835 
0.229781,	 0.003502,	 0.005508,	 1912.000053,	 7.528360,	 573.848123,	 909.335756,	 459.693578,	 4.159325 
0.233921,	 0.003521,	 0.005464,	 1912.943714,	 6.581136,	 572.148118,	 899.439865,	 459.012159,	 4.167548 
0.238061,	 0.003539,	 0.005427,	 1913.745882,	 5.699028,	 570.696743,	 891.073648,	 458.429599,	 4.174587 
0.242202,	 0.003557,	 0.005396,	 1914.419188,	 4.887200,	 569.469233,	 884.067692,	 457.936316,	 4.180549 
0.246342,	 0.003574,	 0.005370,	 1914.971832,	 4.150056,	 568.435945,	 878.263556,	 457.520670,	 4.185552 
0.250482,	 0.003590,	 0.005350,	 1915.419319,	 3.488771,	 567.576946,	 873.511960,	 457.174846,	 4.189694 
0.254622,	 0.003607,	 0.005333,	 1915.777771,	 2.903443,	 566.874074,	 869.672012,	 456.891681,	 4.193073 
0.258763,	 0.003621,	 0.005319,	 1916.069219,	 2.392560,	 566.317965,	 866.610368,	 456.667519,	 4.195767 
0.262903,	 0.003635,	 0.005308,	 1916.291808,	 1.956357,	 565.872083,	 864.208994,	 456.487708,	 4.197907 
0.267043,	 0.003648,	 0.005300,	 1916.457254,	 1.591623,	 565.518641,	 862.356367,	 456.345126,	 4.199580 
0.271183,	 0.003662,	 0.005294,	 1916.577855,	 1.293992,	 565.242945,	 860.949985,	 456.233876,	 4.200868 
0.275323,	 0.003675,	 0.005290,	 1916.664629,	 1.058392,	 565.031487,	 859.897525,	 456.148529,	 4.201844 
0.279463,	 0.003687,	 0.005287,	 1916.726385,	 0.879241,	 564.870958,	 859.117418,	 456.083727,	 4.202576 
0.283604,	 0.003699,	 0.005284,	 1916.771168,	 0.750444,	 564.750136,	 858.538462,	 456.034948,	 4.203124 
0.287744,	 0.003709,	 0.005282,	 1916.814140,	 0.664995,	 564.670169,	 858.098027,	 456.002660,	 4.203516 
0.291884,	 0.003718,	 0.005281,	 1916.845980,	 0.617577,	 564.603795,	 857.749741,	 455.975859,	 4.203832 
0.296024,	 0.003728,	 0.005279,	 1916.869788,	 0.601489,	 564.542262,	 857.452407,	 455.951011,	 4.204114 
0.300165,	 0.003737,	 0.005278,	 1916.893999,	 0.609393,	 564.486623,	 857.172562,	 455.928542,	 4.204374 
0.304305,	 0.003747,	 0.005277,	 1916.922238,	 0.634612,	 564.434697,	 856.887393,	 455.907572,	 4.204629 
0.308445,	 0.003755,	 0.005276,	 1916.955166,	 0.671059,	 564.383193,	 856.583559,	 455.886771,	 4.204893 
0.312585,	 0.003763,	 0.005274,	 1916.992994,	 0.712914,	 564.330746,	 856.255758,	 455.865588,	 4.205172 