TITLE = "MeshVolumeStats"
VARIABLES = "X", "Y", "VOL"
ZONE I=200, J=100, DATAPACKING=POINT
0.040750,	0.006463,	0.001053
0.122250,	0.006499,	0.001059
0.203750,	0.006548,	0.001067
0.285250,	0.006601,	0.001076
0.366750,	0.006656,	0.001085
0.448250,	0.006713,	0.001094
0.529750,	0.006772,	0.001104
0.611250,	0.006832,	0.001114
0.692750,	0.006895,	0.001124
0.774250,	0.006959,	0.001134
0.855750,	0.007024,	0.001145
0.937250,	0.007090,	0.001156
1.018750,	0.007158,	0.001167
1.100250,	0.007226,	0.001178
1.181750,	0.007295,	0.001189
1.263250,	0.007366,	0.001201
1.344750,	0.007437,	0.001212
1.426250,	0.007509,	0.001224
1.507750,	0.007582,	0.001236
1.589250,	0.007655,	0.001248
1.670750,	0.007729,	0.001260
1.752250,	0.007804,	0.001272
1.833750,	0.007878,	0.001284
1.915250,	0.007954,	0.001296
1.996750,	0.008030,	0.001309
2.078250,	0.008106,	0.001321
2.159750,	0.008183,	0.001334
2.241250,	0.008260,	0.001346
2.322750,	0.008337,	0.001359
2.404250,	0.008415,	0.001372
2.485750,	0.008493,	0.001384
2.567250,	0.008571,	0.001397
2.648750,	0.008649,	0.001410
2.730250,	0.008727,	0.001423
2.811750,	0.008806,	0.001435
2.893250,	0.008885,	0.001448
2.974750,	0.008963,	0.001461
3.056250,	0.009042,	0.001474
3.137750,	0.009121,	0.001487
3.219250,	0.009200,	0.001500
3.300750,	0.009278,	0.001512
3.382250,	0.009357,	0.001525
3.463750,	0.009436,	0.001538
3.545250,	0.009514,	0.001551
3.626750,	0.009592,	0.001564
3.708250,	0.009671,	0.001576
3.789750,	0.009749,	0.001589
3.871250,	0.009827,	0.001602
3.952750,	0.009905,	0.001614
4.034250,	0.009983,	0.001627
4.115750,	0.010060,	0.001640
4.197250,	0.010137,	0.001652
4.278750,	0.010214,	0.001665
4.360250,	0.010291,	0.001677
4.441750,	0.010367,	0.001690
4.523250,	0.010444,	0.001702
4.604750,	0.010520,	0.001715
4.686250,	0.010595,	0.001727
4.767750,	0.010671,	0.001739
4.849250,	0.010745,	0.001752
4.930750,	0.010820,	0.001764
5.012250,	0.010894,	0.001776
5.093750,	0.010968,	0.001788
5.175250,	0.011041,	0.001800
5.256750,	0.011114,	0.001812
5.338250,	0.011186,	0.001823
5.419750,	0.011258,	0.001835
5.501250,	0.011330,	0.001847
5.582750,	0.011401,	0.001858
5.664250,	0.011472,	0.001870
5.745750,	0.011542,	0.001881
5.827250,	0.011611,	0.001893
5.908750,	0.011680,	0.001904
5.990250,	0.011748,	0.001915
6.071750,	0.011816,	0.001926
6.153250,	0.011884,	0.001937
6.234750,	0.011951,	0.001948
6.316250,	0.012017,	0.001959
6.397750,	0.012082,	0.001969
6.479250,	0.012147,	0.001980
6.560750,	0.012211,	0.001990
6.642250,	0.012274,	0.002001
6.723750,	0.012337,	0.002011
6.805250,	0.012400,	0.002021
6.886750,	0.012461,	0.002031
6.968250,	0.012521,	0.002041
7.049750,	0.012582,	0.002051
7.131250,	0.012641,	0.002060
7.212750,	0.012699,	0.002070
7.294250,	0.012757,	0.002079
7.375750,	0.012814,	0.002089
7.457250,	0.012870,	0.002098
7.538750,	0.012925,	0.002107
7.620250,	0.012979,	0.002116
7.701750,	0.013033,	0.002124
7.783250,	0.013086,	0.002133
7.864750,	0.013137,	0.002141
7.946250,	0.013188,	0.002150
8.027750,	0.013238,	0.002158
8.109250,	0.013288,	0.002166
8.190750,	0.013336,	0.002174
8.272250,	0.013384,	0.002182
8.353750,	0.013430,	0.002189
8.435250,	0.013475,	0.002196
8.516750,	0.013519,	0.002204
8.598250,	0.013562,	0.002211
8.679750,	0.013605,	0.002218
8.761250,	0.013647,	0.002224
8.842750,	0.013688,	0.002231
8.924250,	0.013728,	0.002238
9.005750,	0.013767,	0.002244
9.087250,	0.013805,	0.002250
9.168750,	0.013843,	0.002256
9.250250,	0.013881,	0.002263
9.331750,	0.013918,	0.002269
9.413250,	0.013953,	0.002274
9.494750,	0.013986,	0.002280
9.576250,	0.014019,	0.002285
9.657750,	0.014052,	0.002291
9.739250,	0.014086,	0.002296
9.820750,	0.014119,	0.002301
9.902250,	0.014151,	0.002307
9.983750,	0.014183,	0.002312
10.065250,	0.014215,	0.002317
10.146750,	0.014244,	0.002322
10.228250,	0.014270,	0.002326
10.309750,	0.014296,	0.002330
10.391250,	0.014323,	0.002335
10.472750,	0.014349,	0.002339
10.554250,	0.014376,	0.002343
10.635750,	0.014403,	0.002348
10.717250,	0.014429,	0.002352
10.798750,	0.014455,	0.002356
10.880250,	0.014480,	0.002360
10.961750,	0.014504,	0.002364
11.043250,	0.014528,	0.002368
11.124750,	0.014551,	0.002372
11.206250,	0.014574,	0.002376
11.287750,	0.014594,	0.002379
11.369250,	0.014612,	0.002382
11.450750,	0.014628,	0.002384
11.532250,	0.014646,	0.002387
11.613750,	0.014666,	0.002391
11.695250,	0.014686,	0.002394
11.776750,	0.014705,	0.002397
11.858250,	0.014724,	0.002400
11.939750,	0.014742,	0.002403
12.021250,	0.014759,	0.002406
12.102750,	0.014776,	0.002409
12.184250,	0.014793,	0.002411
12.265750,	0.014809,	0.002414
12.347250,	0.014824,	0.002416
12.428750,	0.014840,	0.002419
12.510250,	0.014853,	0.002421
12.591750,	0.014865,	0.002423
12.673250,	0.014876,	0.002425
12.754750,	0.014887,	0.002427
12.836250,	0.014898,	0.002428
12.917750,	0.014909,	0.002430
12.999250,	0.014921,	0.002432
13.080750,	0.014933,	0.002434
13.162250,	0.014944,	0.002436
13.243750,	0.014955,	0.002438
13.325250,	0.014966,	0.002439
13.406750,	0.014976,	0.002441
13.488250,	0.014986,	0.002443
13.569750,	0.014996,	0.002444
13.651250,	0.015005,	0.002446
13.732750,	0.015013,	0.002447
13.814250,	0.015022,	0.002449
13.895750,	0.015030,	0.002450
13.977250,	0.015037,	0.002451
14.058750,	0.015043,	0.002452
14.140250,	0.015048,	0.002453
14.221750,	0.015053,	0.002454
14.303250,	0.015058,	0.002455
14.384750,	0.015063,	0.002455
14.466250,	0.015069,	0.002456
14.547750,	0.015074,	0.002457
14.629250,	0.015080,	0.002458
14.710750,	0.015084,	0.002459
14.792250,	0.015089,	0.002460
14.873750,	0.015093,	0.002460
14.955250,	0.015097,	0.002461
15.036750,	0.015101,	0.002462
15.118250,	0.015105,	0.002462
15.199750,	0.015108,	0.002463
15.281250,	0.015110,	0.002463
15.362750,	0.015111,	0.002463
15.444250,	0.015111,	0.002463
15.525750,	0.015113,	0.002463
15.607250,	0.015115,	0.002464
15.688750,	0.015117,	0.002464
15.770250,	0.015119,	0.002464
15.851750,	0.015120,	0.002465
15.933250,	0.015122,	0.002465
16.014750,	0.015123,	0.002465
16.096250,	0.015124,	0.002465
16.177750,	0.015125,	0.002465
16.259250,	0.015126,	0.002465
0.040750,	0.019388,	0.001053
0.122250,	0.019497,	0.001059
0.203750,	0.019645,	0.001067
0.285250,	0.019802,	0.001076
0.366750,	0.019967,	0.001085
0.448250,	0.020138,	0.001094
0.529750,	0.020315,	0.001104
0.611250,	0.020497,	0.001114
0.692750,	0.020684,	0.001124
0.774250,	0.020877,	0.001134
0.855750,	0.021072,	0.001145
0.937250,	0.021270,	0.001156
1.018750,	0.021473,	0.001167
1.100250,	0.021678,	0.001178
1.181750,	0.021886,	0.001189
1.263250,	0.022097,	0.001201
1.344750,	0.022311,	0.001212
1.426250,	0.022527,	0.001224
1.507750,	0.022746,	0.001236
1.589250,	0.022966,	0.001248
1.670750,	0.023187,	0.001260
1.752250,	0.023411,	0.001272
1.833750,	0.023635,	0.001284
1.915250,	0.023861,	0.001296
1.996750,	0.024089,	0.001309
2.078250,	0.024319,	0.001321
2.159750,	0.024549,	0.001334
2.241250,	0.024780,	0.001346
2.322750,	0.025012,	0.001359
2.404250,	0.025245,	0.001372
2.485750,	0.025478,	0.001384
2.567250,	0.025712,	0.001397
2.648750,	0.025947,	0.001410
2.730250,	0.026182,	0.001423
2.811750,	0.026418,	0.001435
2.893250,	0.026654,	0.001448
2.974750,	0.026890,	0.001461
3.056250,	0.027126,	0.001474
3.137750,	0.027362,	0.001487
3.219250,	0.027599,	0.001500
3.300750,	0.027835,	0.001512
3.382250,	0.028071,	0.001525
3.463750,	0.028307,	0.001538
3.545250,	0.028542,	0.001551
3.626750,	0.028777,	0.001564
3.708250,	0.029013,	0.001576
3.789750,	0.029247,	0.001589
3.871250,	0.029481,	0.001602
3.952750,	0.029715,	0.001614
4.034250,	0.029948,	0.001627
4.115750,	0.030181,	0.001640
4.197250,	0.030412,	0.001652
4.278750,	0.030643,	0.001665
4.360250,	0.030873,	0.001677
4.441750,	0.031102,	0.001690
4.523250,	0.031331,	0.001702
4.604750,	0.031559,	0.001715
4.686250,	0.031786,	0.001727
4.767750,	0.032012,	0.001739
4.849250,	0.032236,	0.001752
4.930750,	0.032460,	0.001764
5.012250,	0.032682,	0.001776
5.093750,	0.032903,	0.001788
5.175250,	0.033123,	0.001800
5.256750,	0.033342,	0.001812
5.338250,	0.033559,	0.001823
5.419750,	0.033774,	0.001835
5.501250,	0.033989,	0.001847
5.582750,	0.034202,	0.001858
5.664250,	0.034415,	0.001870
5.745750,	0.034625,	0.001881
5.827250,	0.034834,	0.001893
5.908750,	0.035040,	0.001904
5.990250,	0.035245,	0.001915
6.071750,	0.035449,	0.001926
6.153250,	0.035651,	0.001937
6.234750,	0.035852,	0.001948
6.316250,	0.036050,	0.001959
6.397750,	0.036246,	0.001969
6.479250,	0.036441,	0.001980
6.560750,	0.036633,	0.001990
6.642250,	0.036823,	0.002001
6.723750,	0.037012,	0.002011
6.805250,	0.037199,	0.002021
6.886750,	0.037382,	0.002031
6.968250,	0.037564,	0.002041
7.049750,	0.037745,	0.002051
7.131250,	0.037923,	0.002060
7.212750,	0.038098,	0.002070
7.294250,	0.038271,	0.002079
7.375750,	0.038441,	0.002089
7.457250,	0.038609,	0.002098
7.538750,	0.038775,	0.002107
7.620250,	0.038938,	0.002116
7.701750,	0.039099,	0.002124
7.783250,	0.039257,	0.002133
7.864750,	0.039412,	0.002141
7.946250,	0.039565,	0.002150
8.027750,	0.039715,	0.002158
8.109250,	0.039863,	0.002166
8.190750,	0.040008,	0.002174
8.272250,	0.040151,	0.002182
8.353750,	0.040289,	0.002189
8.435250,	0.040424,	0.002196
8.516750,	0.040556,	0.002204
8.598250,	0.040686,	0.002211
8.679750,	0.040814,	0.002218
8.761250,	0.040940,	0.002224
8.842750,	0.041063,	0.002231
8.924250,	0.041184,	0.002238
9.005750,	0.041301,	0.002244
9.087250,	0.041416,	0.002250
9.168750,	0.041529,	0.002256
9.250250,	0.041642,	0.002263
9.331750,	0.041755,	0.002269
9.413250,	0.041860,	0.002274
9.494750,	0.041959,	0.002280
9.576250,	0.042058,	0.002285
9.657750,	0.042157,	0.002291
9.739250,	0.042257,	0.002296
9.820750,	0.042356,	0.002301
9.902250,	0.042454,	0.002307
9.983750,	0.042550,	0.002312
10.065250,	0.042644,	0.002317
10.146750,	0.042731,	0.002322
10.228250,	0.042809,	0.002326
10.309750,	0.042888,	0.002330
10.391250,	0.042968,	0.002335
10.472750,	0.043048,	0.002339
10.554250,	0.043128,	0.002343
10.635750,	0.043209,	0.002348
10.717250,	0.043287,	0.002352
10.798750,	0.043364,	0.002356
10.880250,	0.043440,	0.002360
10.961750,	0.043513,	0.002364
11.043250,	0.043585,	0.002368
11.124750,	0.043654,	0.002372
11.206250,	0.043722,	0.002376
11.287750,	0.043783,	0.002379
11.369250,	0.043836,	0.002382
11.450750,	0.043885,	0.002384
11.532250,	0.043939,	0.002387
11.613750,	0.043999,	0.002391
11.695250,	0.044057,	0.002394
11.776750,	0.044114,	0.002397
11.858250,	0.044171,	0.002400
11.939750,	0.044225,	0.002403
12.021250,	0.044277,	0.002406
12.102750,	0.044328,	0.002409
12.184250,	0.044378,	0.002411
12.265750,	0.044426,	0.002414
12.347250,	0.044473,	0.002416
12.428750,	0.044519,	0.002419
12.510250,	0.044560,	0.002421
12.591750,	0.044594,	0.002423
12.673250,	0.044628,	0.002425
12.754750,	0.044660,	0.002427
12.836250,	0.044693,	0.002428
12.917750,	0.044726,	0.002430
12.999250,	0.044762,	0.002432
13.080750,	0.044798,	0.002434
13.162250,	0.044833,	0.002436
13.243750,	0.044865,	0.002438
13.325250,	0.044897,	0.002439
13.406750,	0.044928,	0.002441
13.488250,	0.044958,	0.002443
13.569750,	0.044987,	0.002444
13.651250,	0.045014,	0.002446
13.732750,	0.045040,	0.002447
13.814250,	0.045066,	0.002449
13.895750,	0.045090,	0.002450
13.977250,	0.045112,	0.002451
14.058750,	0.045129,	0.002452
14.140250,	0.045145,	0.002453
14.221750,	0.045160,	0.002454
14.303250,	0.045175,	0.002455
14.384750,	0.045190,	0.002455
14.466250,	0.045206,	0.002456
14.547750,	0.045223,	0.002457
14.629250,	0.045239,	0.002458
14.710750,	0.045253,	0.002459
14.792250,	0.045267,	0.002460
14.873750,	0.045280,	0.002460
14.955250,	0.045292,	0.002461
15.036750,	0.045304,	0.002462
15.118250,	0.045315,	0.002462
15.199750,	0.045325,	0.002463
15.281250,	0.045331,	0.002463
15.362750,	0.045332,	0.002463
15.444250,	0.045333,	0.002463
15.525750,	0.045338,	0.002463
15.607250,	0.045344,	0.002464
15.688750,	0.045350,	0.002464
15.770250,	0.045356,	0.002464
15.851750,	0.045361,	0.002465
15.933250,	0.045365,	0.002465
16.014750,	0.045369,	0.002465
16.096250,	0.045372,	0.002465
16.177750,	0.045375,	0.002465
16.259250,	0.045377,	0.002465
0.040750,	0.032314,	0.001053
0.122250,	0.032495,	0.001059
0.203750,	0.032741,	0.001067
0.285250,	0.033004,	0.001076
0.366750,	0.033279,	0.001085
0.448250,	0.033564,	0.001094
0.529750,	0.033859,	0.001104
0.611250,	0.034162,	0.001114
0.692750,	0.034474,	0.001124
0.774250,	0.034794,	0.001134
0.855750,	0.035120,	0.001145
0.937250,	0.035451,	0.001156
1.018750,	0.035788,	0.001167
1.100250,	0.036130,	0.001178
1.181750,	0.036476,	0.001189
1.263250,	0.036829,	0.001201
1.344750,	0.037185,	0.001212
1.426250,	0.037546,	0.001224
1.507750,	0.037910,	0.001236
1.589250,	0.038276,	0.001248
1.670750,	0.038645,	0.001260
1.752250,	0.039018,	0.001272
1.833750,	0.039392,	0.001284
1.915250,	0.039769,	0.001296
1.996750,	0.040149,	0.001309
2.078250,	0.040531,	0.001321
2.159750,	0.040916,	0.001334
2.241250,	0.041300,	0.001346
2.322750,	0.041686,	0.001359
2.404250,	0.042075,	0.001372
2.485750,	0.042464,	0.001384
2.567250,	0.042853,	0.001397
2.648750,	0.043245,	0.001410
2.730250,	0.043637,	0.001423
2.811750,	0.044030,	0.001435
2.893250,	0.044423,	0.001448
2.974750,	0.044816,	0.001461
3.056250,	0.045210,	0.001474
3.137750,	0.045604,	0.001487
3.219250,	0.045998,	0.001500
3.300750,	0.046391,	0.001512
3.382250,	0.046785,	0.001525
3.463750,	0.047178,	0.001538
3.545250,	0.047569,	0.001551
3.626750,	0.047962,	0.001564
3.708250,	0.048354,	0.001576
3.789750,	0.048745,	0.001589
3.871250,	0.049135,	0.001602
3.952750,	0.049524,	0.001614
4.034250,	0.049913,	0.001627
4.115750,	0.050301,	0.001640
4.197250,	0.050687,	0.001652
4.278750,	0.051071,	0.001665
4.360250,	0.051454,	0.001677
4.441750,	0.051837,	0.001690
4.523250,	0.052218,	0.001702
4.604750,	0.052598,	0.001715
4.686250,	0.052976,	0.001727
4.767750,	0.053353,	0.001739
4.849250,	0.053727,	0.001752
4.930750,	0.054100,	0.001764
5.012250,	0.054470,	0.001776
5.093750,	0.054839,	0.001788
5.175250,	0.055206,	0.001800
5.256750,	0.055570,	0.001812
5.338250,	0.055931,	0.001823
5.419750,	0.056291,	0.001835
5.501250,	0.056648,	0.001847
5.582750,	0.057004,	0.001858
5.664250,	0.057358,	0.001870
5.745750,	0.057709,	0.001881
5.827250,	0.058056,	0.001893
5.908750,	0.058400,	0.001904
5.990250,	0.058742,	0.001915
6.071750,	0.059081,	0.001926
6.153250,	0.059418,	0.001937
6.234750,	0.059753,	0.001948
6.316250,	0.060083,	0.001959
6.397750,	0.060411,	0.001969
6.479250,	0.060734,	0.001980
6.560750,	0.061055,	0.001990
6.642250,	0.061372,	0.002001
6.723750,	0.061687,	0.002011
6.805250,	0.061998,	0.002021
6.886750,	0.062304,	0.002031
6.968250,	0.062607,	0.002041
7.049750,	0.062908,	0.002051
7.131250,	0.063204,	0.002060
7.212750,	0.063496,	0.002070
7.294250,	0.063784,	0.002079
7.375750,	0.064068,	0.002089
7.457250,	0.064348,	0.002098
7.538750,	0.064625,	0.002107
7.620250,	0.064897,	0.002116
7.701750,	0.065164,	0.002124
7.783250,	0.065428,	0.002133
7.864750,	0.065687,	0.002141
7.946250,	0.065942,	0.002150
8.027750,	0.066192,	0.002158
8.109250,	0.066439,	0.002166
8.190750,	0.066681,	0.002174
8.272250,	0.066918,	0.002182
8.353750,	0.067148,	0.002189
8.435250,	0.067373,	0.002196
8.516750,	0.067593,	0.002204
8.598250,	0.067809,	0.002211
8.679750,	0.068023,	0.002218
8.761250,	0.068233,	0.002224
8.842750,	0.068439,	0.002231
8.924250,	0.068640,	0.002238
9.005750,	0.068836,	0.002244
9.087250,	0.069027,	0.002250
9.168750,	0.069215,	0.002256
9.250250,	0.069404,	0.002263
9.331750,	0.069592,	0.002269
9.413250,	0.069767,	0.002274
9.494750,	0.069931,	0.002280
9.576250,	0.070096,	0.002285
9.657750,	0.070262,	0.002291
9.739250,	0.070428,	0.002296
9.820750,	0.070594,	0.002301
9.902250,	0.070757,	0.002307
9.983750,	0.070917,	0.002312
10.065250,	0.071074,	0.002317
10.146750,	0.071218,	0.002322
10.228250,	0.071349,	0.002326
10.309750,	0.071480,	0.002330
10.391250,	0.071613,	0.002335
10.472750,	0.071746,	0.002339
10.554250,	0.071880,	0.002343
10.635750,	0.072014,	0.002348
10.717250,	0.072146,	0.002352
10.798750,	0.072274,	0.002356
10.880250,	0.072400,	0.002360
10.961750,	0.072522,	0.002364
11.043250,	0.072641,	0.002368
11.124750,	0.072757,	0.002372
11.206250,	0.072870,	0.002376
11.287750,	0.072972,	0.002379
11.369250,	0.073059,	0.002382
11.450750,	0.073141,	0.002384
11.532250,	0.073232,	0.002387
11.613750,	0.073331,	0.002391
11.695250,	0.073429,	0.002394
11.776750,	0.073524,	0.002397
11.858250,	0.073618,	0.002400
11.939750,	0.073708,	0.002403
12.021250,	0.073795,	0.002406
12.102750,	0.073880,	0.002409
12.184250,	0.073963,	0.002411
12.265750,	0.074044,	0.002414
12.347250,	0.074122,	0.002416
12.428750,	0.074198,	0.002419
12.510250,	0.074266,	0.002421
12.591750,	0.074324,	0.002423
12.673250,	0.074379,	0.002425
12.754750,	0.074434,	0.002427
12.836250,	0.074488,	0.002428
12.917750,	0.074544,	0.002430
12.999250,	0.074603,	0.002432
13.080750,	0.074664,	0.002434
13.162250,	0.074721,	0.002436
13.243750,	0.074776,	0.002438
13.325250,	0.074829,	0.002439
13.406750,	0.074880,	0.002441
13.488250,	0.074930,	0.002443
13.569750,	0.074978,	0.002444
13.651250,	0.075023,	0.002446
13.732750,	0.075067,	0.002447
13.814250,	0.075110,	0.002449
13.895750,	0.075151,	0.002450
13.977250,	0.075186,	0.002451
14.058750,	0.075215,	0.002452
14.140250,	0.075242,	0.002453
14.221750,	0.075267,	0.002454
14.303250,	0.075291,	0.002455
14.384750,	0.075317,	0.002455
14.466250,	0.075344,	0.002456
14.547750,	0.075372,	0.002457
14.629250,	0.075398,	0.002458
14.710750,	0.075422,	0.002459
14.792250,	0.075445,	0.002460
14.873750,	0.075467,	0.002460
14.955250,	0.075487,	0.002461
15.036750,	0.075507,	0.002462
15.118250,	0.075525,	0.002462
15.199750,	0.075542,	0.002463
15.281250,	0.075552,	0.002463
15.362750,	0.075554,	0.002463
15.444250,	0.075556,	0.002463
15.525750,	0.075563,	0.002463
15.607250,	0.075573,	0.002464
15.688750,	0.075584,	0.002464
15.770250,	0.075593,	0.002464
15.851750,	0.075601,	0.002465
15.933250,	0.075609,	0.002465
16.014750,	0.075615,	0.002465
16.096250,	0.075621,	0.002465
16.177750,	0.075625,	0.002465
16.259250,	0.075629,	0.002465
0.040750,	0.045239,	0.001053
0.122250,	0.045494,	0.001059
0.203750,	0.045838,	0.001067
0.285250,	0.046205,	0.001076
0.366750,	0.046590,	0.001085
0.448250,	0.046989,	0.001094
0.529750,	0.047402,	0.001104
0.611250,	0.047827,	0.001114
0.692750,	0.048263,	0.001124
0.774250,	0.048712,	0.001134
0.855750,	0.049168,	0.001145
0.937250,	0.049631,	0.001156
1.018750,	0.050103,	0.001167
1.100250,	0.050582,	0.001178
1.181750,	0.051067,	0.001189
1.263250,	0.051560,	0.001201
1.344750,	0.052060,	0.001212
1.426250,	0.052564,	0.001224
1.507750,	0.053074,	0.001236
1.589250,	0.053587,	0.001248
1.670750,	0.054104,	0.001260
1.752250,	0.054625,	0.001272
1.833750,	0.055148,	0.001284
1.915250,	0.055676,	0.001296
1.996750,	0.056208,	0.001309
2.078250,	0.056744,	0.001321
2.159750,	0.057282,	0.001334
2.241250,	0.057820,	0.001346
2.322750,	0.058360,	0.001359
2.404250,	0.058904,	0.001372
2.485750,	0.059449,	0.001384
2.567250,	0.059995,	0.001397
2.648750,	0.060543,	0.001410
2.730250,	0.061092,	0.001423
2.811750,	0.061643,	0.001435
2.893250,	0.062193,	0.001448
2.974750,	0.062743,	0.001461
3.056250,	0.063294,	0.001474
3.137750,	0.063846,	0.001487
3.219250,	0.064397,	0.001500
3.300750,	0.064948,	0.001512
3.382250,	0.065499,	0.001525
3.463750,	0.066049,	0.001538
3.545250,	0.066597,	0.001551
3.626750,	0.067147,	0.001564
3.708250,	0.067696,	0.001576
3.789750,	0.068243,	0.001589
3.871250,	0.068789,	0.001602
3.952750,	0.069334,	0.001614
4.034250,	0.069879,	0.001627
4.115750,	0.070422,	0.001640
4.197250,	0.070962,	0.001652
4.278750,	0.071500,	0.001665
4.360250,	0.072036,	0.001677
4.441750,	0.072572,	0.001690
4.523250,	0.073106,	0.001702
4.604750,	0.073637,	0.001715
4.686250,	0.074167,	0.001727
4.767750,	0.074694,	0.001739
4.849250,	0.075218,	0.001752
4.930750,	0.075739,	0.001764
5.012250,	0.076258,	0.001776
5.093750,	0.076775,	0.001788
5.175250,	0.077288,	0.001800
5.256750,	0.077797,	0.001812
5.338250,	0.078303,	0.001823
5.419750,	0.078807,	0.001835
5.501250,	0.079308,	0.001847
5.582750,	0.079806,	0.001858
5.664250,	0.080301,	0.001870
5.745750,	0.080792,	0.001881
5.827250,	0.081279,	0.001893
5.908750,	0.081760,	0.001904
5.990250,	0.082238,	0.001915
6.071750,	0.082713,	0.001926
6.153250,	0.083185,	0.001937
6.234750,	0.083654,	0.001948
6.316250,	0.084117,	0.001959
6.397750,	0.084575,	0.001969
6.479250,	0.085028,	0.001980
6.560750,	0.085477,	0.001990
6.642250,	0.085921,	0.002001
6.723750,	0.086362,	0.002011
6.805250,	0.086797,	0.002021
6.886750,	0.087225,	0.002031
6.968250,	0.087650,	0.002041
7.049750,	0.088071,	0.002051
7.131250,	0.088486,	0.002060
7.212750,	0.088895,	0.002070
7.294250,	0.089298,	0.002079
7.375750,	0.089695,	0.002089
7.457250,	0.090088,	0.002098
7.538750,	0.090475,	0.002107
7.620250,	0.090856,	0.002116
7.701750,	0.091230,	0.002124
7.783250,	0.091599,	0.002133
7.864750,	0.091961,	0.002141
7.946250,	0.092318,	0.002150
8.027750,	0.092669,	0.002158
8.109250,	0.093015,	0.002166
8.190750,	0.093353,	0.002174
8.272250,	0.093685,	0.002182
8.353750,	0.094007,	0.002189
8.435250,	0.094322,	0.002196
8.516750,	0.094631,	0.002204
8.598250,	0.094933,	0.002211
8.679750,	0.095232,	0.002218
8.761250,	0.095526,	0.002224
8.842750,	0.095815,	0.002231
8.924250,	0.096095,	0.002238
9.005750,	0.096370,	0.002244
9.087250,	0.096637,	0.002250
9.168750,	0.096901,	0.002256
9.250250,	0.097166,	0.002263
9.331750,	0.097428,	0.002269
9.413250,	0.097674,	0.002274
9.494750,	0.097904,	0.002280
9.576250,	0.098135,	0.002285
9.657750,	0.098367,	0.002291
9.739250,	0.098600,	0.002296
9.820750,	0.098831,	0.002301
9.902250,	0.099060,	0.002307
9.983750,	0.099284,	0.002312
10.065250,	0.099503,	0.002317
10.146750,	0.099705,	0.002322
10.228250,	0.099889,	0.002326
10.309750,	0.100072,	0.002330
10.391250,	0.100258,	0.002335
10.472750,	0.100445,	0.002339
10.554250,	0.100632,	0.002343
10.635750,	0.100820,	0.002348
10.717250,	0.101004,	0.002352
10.798750,	0.101183,	0.002356
10.880250,	0.101359,	0.002360
10.961750,	0.101530,	0.002364
11.043250,	0.101698,	0.002368
11.124750,	0.101860,	0.002372
11.206250,	0.102018,	0.002376
11.287750,	0.102161,	0.002379
11.369250,	0.102283,	0.002382
11.450750,	0.102398,	0.002384
11.532250,	0.102525,	0.002387
11.613750,	0.102664,	0.002391
11.695250,	0.102800,	0.002394
11.776750,	0.102933,	0.002397
11.858250,	0.103065,	0.002400
11.939750,	0.103191,	0.002403
12.021250,	0.103313,	0.002406
12.102750,	0.103433,	0.002409
12.184250,	0.103548,	0.002411
12.265750,	0.103661,	0.002414
12.347250,	0.103771,	0.002416
12.428750,	0.103877,	0.002419
12.510250,	0.103973,	0.002421
12.591750,	0.104054,	0.002423
12.673250,	0.104131,	0.002425
12.754750,	0.104207,	0.002427
12.836250,	0.104283,	0.002428
12.917750,	0.104361,	0.002430
12.999250,	0.104445,	0.002432
13.080750,	0.104530,	0.002434
13.162250,	0.104610,	0.002436
13.243750,	0.104686,	0.002438
13.325250,	0.104760,	0.002439
13.406750,	0.104832,	0.002441
13.488250,	0.104902,	0.002443
13.569750,	0.104969,	0.002444
13.651250,	0.105032,	0.002446
13.732750,	0.105094,	0.002447
13.814250,	0.105154,	0.002449
13.895750,	0.105211,	0.002450
13.977250,	0.105261,	0.002451
14.058750,	0.105301,	0.002452
14.140250,	0.105338,	0.002453
14.221750,	0.105374,	0.002454
14.303250,	0.105408,	0.002455
14.384750,	0.105443,	0.002455
14.466250,	0.105481,	0.002456
14.547750,	0.105521,	0.002457
14.629250,	0.105558,	0.002458
14.710750,	0.105591,	0.002459
14.792250,	0.105623,	0.002460
14.873750,	0.105653,	0.002460
14.955250,	0.105682,	0.002461
15.036750,	0.105710,	0.002462
15.118250,	0.105735,	0.002462
15.199750,	0.105758,	0.002463
15.281250,	0.105772,	0.002463
15.362750,	0.105775,	0.002463
15.444250,	0.105778,	0.002463
15.525750,	0.105788,	0.002463
15.607250,	0.105803,	0.002464
15.688750,	0.105817,	0.002464
15.770250,	0.105830,	0.002464
15.851750,	0.105842,	0.002465
15.933250,	0.105852,	0.002465
16.014750,	0.105861,	0.002465
16.096250,	0.105869,	0.002465
16.177750,	0.105875,	0.002465
16.259250,	0.105880,	0.002465
0.040750,	0.058165,	0.001053
0.122250,	0.058492,	0.001059
0.203750,	0.058934,	0.001067
0.285250,	0.059407,	0.001076
0.366750,	0.059902,	0.001085
0.448250,	0.060414,	0.001094
0.529750,	0.060946,	0.001104
0.611250,	0.061491,	0.001114
0.692750,	0.062053,	0.001124
0.774250,	0.062630,	0.001134
0.855750,	0.063216,	0.001145
0.937250,	0.063811,	0.001156
1.018750,	0.064418,	0.001167
1.100250,	0.065033,	0.001178
1.181750,	0.065658,	0.001189
1.263250,	0.066292,	0.001201
1.344750,	0.066934,	0.001212
1.426250,	0.067582,	0.001224
1.507750,	0.068238,	0.001236
1.589250,	0.068897,	0.001248
1.670750,	0.069562,	0.001260
1.752250,	0.070232,	0.001272
1.833750,	0.070905,	0.001284
1.915250,	0.071583,	0.001296
1.996750,	0.072268,	0.001309
2.078250,	0.072957,	0.001321
2.159750,	0.073648,	0.001334
2.241250,	0.074340,	0.001346
2.322750,	0.075035,	0.001359
2.404250,	0.075734,	0.001372
2.485750,	0.076434,	0.001384
2.567250,	0.077136,	0.001397
2.648750,	0.077840,	0.001410
2.730250,	0.078547,	0.001423
2.811750,	0.079255,	0.001435
2.893250,	0.079962,	0.001448
2.974750,	0.080669,	0.001461
3.056250,	0.081378,	0.001474
3.137750,	0.082087,	0.001487
3.219250,	0.082796,	0.001500
3.300750,	0.083505,	0.001512
3.382250,	0.084213,	0.001525
3.463750,	0.084920,	0.001538
3.545250,	0.085625,	0.001551
3.626750,	0.086331,	0.001564
3.708250,	0.087038,	0.001576
3.789750,	0.087741,	0.001589
3.871250,	0.088443,	0.001602
3.952750,	0.089144,	0.001614
4.034250,	0.089844,	0.001627
4.115750,	0.090542,	0.001640
4.197250,	0.091237,	0.001652
4.278750,	0.091928,	0.001665
4.360250,	0.092618,	0.001677
4.441750,	0.093306,	0.001690
4.523250,	0.093993,	0.001702
4.604750,	0.094677,	0.001715
4.686250,	0.095357,	0.001727
4.767750,	0.096035,	0.001739
4.849250,	0.096709,	0.001752
4.930750,	0.097379,	0.001764
5.012250,	0.098047,	0.001776
5.093750,	0.098710,	0.001788
5.175250,	0.099370,	0.001800
5.256750,	0.100025,	0.001812
5.338250,	0.100676,	0.001823
5.419750,	0.101323,	0.001835
5.501250,	0.101967,	0.001847
5.582750,	0.102607,	0.001858
5.664250,	0.103244,	0.001870
5.745750,	0.103875,	0.001881
5.827250,	0.104501,	0.001893
5.908750,	0.105121,	0.001904
5.990250,	0.105735,	0.001915
6.071750,	0.106346,	0.001926
6.153250,	0.106952,	0.001937
6.234750,	0.107555,	0.001948
6.316250,	0.108150,	0.001959
6.397750,	0.108739,	0.001969
6.479250,	0.109322,	0.001980
6.560750,	0.109899,	0.001990
6.642250,	0.110470,	0.002001
6.723750,	0.111037,	0.002011
6.805250,	0.111596,	0.002021
6.886750,	0.112146,	0.002031
6.968250,	0.112692,	0.002041
7.049750,	0.113234,	0.002051
7.131250,	0.113768,	0.002060
7.212750,	0.114293,	0.002070
7.294250,	0.114812,	0.002079
7.375750,	0.115323,	0.002089
7.457250,	0.115827,	0.002098
7.538750,	0.116325,	0.002107
7.620250,	0.116815,	0.002116
7.701750,	0.117296,	0.002124
7.783250,	0.117770,	0.002133
7.864750,	0.118236,	0.002141
7.946250,	0.118695,	0.002150
8.027750,	0.119146,	0.002158
8.109250,	0.119590,	0.002166
8.190750,	0.120025,	0.002174
8.272250,	0.120452,	0.002182
8.353750,	0.120867,	0.002189
8.435250,	0.121272,	0.002196
8.516750,	0.121668,	0.002204
8.598250,	0.122057,	0.002211
8.679750,	0.122441,	0.002218
8.761250,	0.122819,	0.002224
8.842750,	0.123190,	0.002231
8.924250,	0.123551,	0.002238
9.005750,	0.123904,	0.002244
9.087250,	0.124248,	0.002250
9.168750,	0.124587,	0.002256
9.250250,	0.124927,	0.002263
9.331750,	0.125265,	0.002269
9.413250,	0.125581,	0.002274
9.494750,	0.125876,	0.002280
9.576250,	0.126173,	0.002285
9.657750,	0.126472,	0.002291
9.739250,	0.126771,	0.002296
9.820750,	0.127069,	0.002301
9.902250,	0.127363,	0.002307
9.983750,	0.127651,	0.002312
10.065250,	0.127932,	0.002317
10.146750,	0.128192,	0.002322
10.228250,	0.128428,	0.002326
10.309750,	0.128664,	0.002330
10.391250,	0.128903,	0.002335
10.472750,	0.129144,	0.002339
10.554250,	0.129385,	0.002343
10.635750,	0.129626,	0.002348
10.717250,	0.129862,	0.002352
10.798750,	0.130093,	0.002356
10.880250,	0.130319,	0.002360
10.961750,	0.130539,	0.002364
11.043250,	0.130755,	0.002368
11.124750,	0.130963,	0.002372
11.206250,	0.131165,	0.002376
11.287750,	0.131350,	0.002379
11.369250,	0.131507,	0.002382
11.450750,	0.131654,	0.002384
11.532250,	0.131818,	0.002387
11.613750,	0.131996,	0.002391
11.695250,	0.132172,	0.002394
11.776750,	0.132343,	0.002397
11.858250,	0.132512,	0.002400
11.939750,	0.132674,	0.002403
12.021250,	0.132831,	0.002406
12.102750,	0.132985,	0.002409
12.184250,	0.133133,	0.002411
12.265750,	0.133279,	0.002414
12.347250,	0.133419,	0.002416
12.428750,	0.133556,	0.002419
12.510250,	0.133679,	0.002421
12.591750,	0.133783,	0.002423
12.673250,	0.133883,	0.002425
12.754750,	0.133981,	0.002427
12.836250,	0.134078,	0.002428
12.917750,	0.134179,	0.002430
12.999250,	0.134286,	0.002432
13.080750,	0.134395,	0.002434
13.162250,	0.134499,	0.002436
13.243750,	0.134596,	0.002438
13.325250,	0.134692,	0.002439
13.406750,	0.134784,	0.002441
13.488250,	0.134875,	0.002443
13.569750,	0.134961,	0.002444
13.651250,	0.135042,	0.002446
13.732750,	0.135121,	0.002447
13.814250,	0.135197,	0.002449
13.895750,	0.135271,	0.002450
13.977250,	0.135335,	0.002451
14.058750,	0.135387,	0.002452
14.140250,	0.135435,	0.002453
14.221750,	0.135481,	0.002454
14.303250,	0.135525,	0.002455
14.384750,	0.135570,	0.002455
14.466250,	0.135619,	0.002456
14.547750,	0.135670,	0.002457
14.629250,	0.135717,	0.002458
14.710750,	0.135759,	0.002459
14.792250,	0.135801,	0.002460
14.873750,	0.135840,	0.002460
14.955250,	0.135877,	0.002461
15.036750,	0.135912,	0.002462
15.118250,	0.135944,	0.002462
15.199750,	0.135975,	0.002463
15.281250,	0.135993,	0.002463
15.362750,	0.135997,	0.002463
15.444250,	0.136000,	0.002463
15.525750,	0.136013,	0.002463
15.607250,	0.136032,	0.002464
15.688750,	0.136051,	0.002464
15.770250,	0.136067,	0.002464
15.851750,	0.136082,	0.002465
15.933250,	0.136095,	0.002465
16.014750,	0.136107,	0.002465
16.096250,	0.136117,	0.002465
16.177750,	0.136125,	0.002465
16.259250,	0.136132,	0.002465
0.040750,	0.071090,	0.001053
0.122250,	0.071490,	0.001059
0.203750,	0.072030,	0.001067
0.285250,	0.072608,	0.001076
0.366750,	0.073213,	0.001085
0.448250,	0.073840,	0.001094
0.529750,	0.074489,	0.001104
0.611250,	0.075156,	0.001114
0.692750,	0.075842,	0.001124
0.774250,	0.076548,	0.001134
0.855750,	0.077263,	0.001145
0.937250,	0.077991,	0.001156
1.018750,	0.078733,	0.001167
1.100250,	0.079485,	0.001178
1.181750,	0.080248,	0.001189
1.263250,	0.081023,	0.001201
1.344750,	0.081808,	0.001212
1.426250,	0.082601,	0.001224