TITLE = "MeshVolumeStats"
VARIABLES = "X", "Y", "VOL"
ZONE I=100, J=100, DATAPACKING=POINT
0.015000,	0.007425,	0.000446
0.045000,	0.007425,	0.000446
0.075000,	0.007425,	0.000446
0.105000,	0.007425,	0.000446
0.135000,	0.007425,	0.000446
0.165000,	0.007425,	0.000446
0.195000,	0.007425,	0.000446
0.225000,	0.007425,	0.000446
0.255000,	0.007425,	0.000446
0.285000,	0.007425,	0.000446
0.315000,	0.007425,	0.000446
0.345000,	0.007425,	0.000446
0.375000,	0.007425,	0.000446
0.405000,	0.007425,	0.000446
0.435000,	0.007425,	0.000446
0.465000,	0.007425,	0.000446
0.495000,	0.007425,	0.000446
0.525000,	0.007425,	0.000446
0.555000,	0.007425,	0.000446
0.585000,	0.007425,	0.000446
0.615000,	0.007425,	0.000446
0.645000,	0.007425,	0.000446
0.675000,	0.007425,	0.000446
0.705000,	0.007425,	0.000446
0.735000,	0.007425,	0.000446
0.765000,	0.007425,	0.000446
0.795000,	0.007425,	0.000446
0.825000,	0.007425,	0.000446
0.855000,	0.007425,	0.000446
0.885000,	0.007425,	0.000446
0.915000,	0.007425,	0.000446
0.945000,	0.007425,	0.000446
0.975000,	0.007425,	0.000446
1.005000,	0.009913,	0.000445
1.035000,	0.016133,	0.000443
1.065000,	0.023595,	0.000441
1.095000,	0.031058,	0.000438
1.125000,	0.038521,	0.000436
1.155000,	0.045984,	0.000434
1.185000,	0.053447,	0.000432
1.215000,	0.060909,	0.000430
1.245000,	0.068373,	0.000427
1.275000,	0.075836,	0.000425
1.305000,	0.083298,	0.000423
1.335000,	0.090761,	0.000421
1.365000,	0.098224,	0.000418
1.395000,	0.105687,	0.000416
1.425000,	0.113150,	0.000414
1.455000,	0.120612,	0.000412
1.485000,	0.128075,	0.000410
1.515000,	0.135539,	0.000407
1.545000,	0.143001,	0.000405
1.575000,	0.150464,	0.000403
1.605000,	0.157927,	0.000401
1.635000,	0.165390,	0.000398
1.665000,	0.172853,	0.000396
1.695000,	0.180316,	0.000394
1.725000,	0.187779,	0.000392
1.755000,	0.195241,	0.000389
1.785000,	0.202704,	0.000387
1.815000,	0.210167,	0.000385
1.845000,	0.217630,	0.000383
1.875000,	0.225093,	0.000381
1.905000,	0.232556,	0.000378
1.935000,	0.240019,	0.000376
1.965000,	0.247481,	0.000374
1.995000,	0.253700,	0.000372
2.025000,	0.256188,	0.000371
2.055000,	0.256188,	0.000371
2.085000,	0.256188,	0.000371
2.115000,	0.256188,	0.000371
2.145000,	0.256188,	0.000371
2.175000,	0.256188,	0.000371
2.205000,	0.256188,	0.000371
2.235000,	0.256188,	0.000371
2.265000,	0.256188,	0.000371
2.295000,	0.256188,	0.000371
2.325000,	0.256188,	0.000371
2.355000,	0.256188,	0.000371
2.385000,	0.256188,	0.000371
2.415000,	0.256188,	0.000371
2.445000,	0.256188,	0.000371
2.475000,	0.256188,	0.000371
2.505000,	0.256188,	0.000371
2.535000,	0.256188,	0.000371
2.565000,	0.256188,	0.000371
2.595000,	0.256188,	0.000371
2.625000,	0.256188,	0.000371
2.655000,	0.256188,	0.000371
2.685000,	0.256188,	0.000371
2.715000,	0.256188,	0.000371
2.745000,	0.256188,	0.000371
2.775000,	0.256188,	0.000371
2.805000,	0.256188,	0.000371
2.835000,	0.256188,	0.000371
2.865000,	0.256188,	0.000371
2.895000,	0.256188,	0.000371
2.925000,	0.256188,	0.000371
2.955000,	0.256188,	0.000371
2.985000,	0.256188,	0.000371
0.015000,	0.022277,	0.000446
0.045000,	0.022277,	0.000446
0.075000,	0.022277,	0.000446
0.105000,	0.022277,	0.000446
0.135000,	0.022277,	0.000446
0.165000,	0.022277,	0.000446
0.195000,	0.022277,	0.000446
0.225000,	0.022277,	0.000446
0.255000,	0.022277,	0.000446
0.285000,	0.022277,	0.000446
0.315000,	0.022277,	0.000446
0.345000,	0.022277,	0.000446
0.375000,	0.022277,	0.000446
0.405000,	0.022277,	0.000446
0.435000,	0.022277,	0.000446
0.465000,	0.022277,	0.000446
0.495000,	0.022277,	0.000446
0.525000,	0.022277,	0.000446
0.555000,	0.022277,	0.000446
0.585000,	0.022277,	0.000446
0.615000,	0.022277,	0.000446
0.645000,	0.022277,	0.000446
0.675000,	0.022277,	0.000446
0.705000,	0.022277,	0.000446
0.735000,	0.022277,	0.000446
0.765000,	0.022277,	0.000446
0.795000,	0.022277,	0.000446
0.825000,	0.022277,	0.000446
0.855000,	0.022277,	0.000446
0.885000,	0.022277,	0.000446
0.915000,	0.022277,	0.000446
0.945000,	0.022277,	0.000446
0.975000,	0.022277,	0.000446
1.005000,	0.024740,	0.000445
1.035000,	0.030897,	0.000443
1.065000,	0.038286,	0.000441
1.095000,	0.045674,	0.000438
1.125000,	0.053063,	0.000436
1.155000,	0.060452,	0.000434
1.185000,	0.067840,	0.000432
1.215000,	0.075229,	0.000430
1.245000,	0.082618,	0.000427
1.275000,	0.090006,	0.000425
1.305000,	0.097395,	0.000423
1.335000,	0.104783,	0.000421
1.365000,	0.112172,	0.000418
1.395000,	0.119561,	0.000416
1.425000,	0.126949,	0.000414
1.455000,	0.134338,	0.000412
1.485000,	0.141727,	0.000410
1.515000,	0.149115,	0.000407
1.545000,	0.156504,	0.000405
1.575000,	0.163892,	0.000403
1.605000,	0.171281,	0.000401
1.635000,	0.178670,	0.000398
1.665000,	0.186058,	0.000396
1.695000,	0.193447,	0.000394
1.725000,	0.200836,	0.000392
1.755000,	0.208224,	0.000389
1.785000,	0.215613,	0.000387
1.815000,	0.223001,	0.000385
1.845000,	0.230390,	0.000383
1.875000,	0.237779,	0.000381
1.905000,	0.245167,	0.000378
1.935000,	0.252556,	0.000376
1.965000,	0.259944,	0.000374
1.995000,	0.266101,	0.000372
2.025000,	0.268564,	0.000371
2.055000,	0.268564,	0.000371
2.085000,	0.268564,	0.000371
2.115000,	0.268564,	0.000371
2.145000,	0.268564,	0.000371
2.175000,	0.268564,	0.000371
2.205000,	0.268564,	0.000371
2.235000,	0.268564,	0.000371
2.265000,	0.268564,	0.000371
2.295000,	0.268564,	0.000371
2.325000,	0.268564,	0.000371
2.355000,	0.268564,	0.000371
2.385000,	0.268564,	0.000371
2.415000,	0.268564,	0.000371
2.445000,	0.268564,	0.000371
2.475000,	0.268564,	0.000371
2.505000,	0.268564,	0.000371
2.535000,	0.268564,	0.000371
2.565000,	0.268564,	0.000371
2.595000,	0.268564,	0.000371
2.625000,	0.268564,	0.000371
2.655000,	0.268564,	0.000371
2.685000,	0.268564,	0.000371
2.715000,	0.268564,	0.000371
2.745000,	0.268564,	0.000371
2.775000,	0.268564,	0.000371
2.805000,	0.268564,	0.000371
2.835000,	0.268564,	0.000371
2.865000,	0.268564,	0.000371
2.895000,	0.268564,	0.000371
2.925000,	0.268564,	0.000371
2.955000,	0.268564,	0.000371
2.985000,	0.268564,	0.000371
0.015000,	0.037129,	0.000446
0.045000,	0.037129,	0.000446
0.075000,	0.037129,	0.000446
0.105000,	0.037129,	0.000446
0.135000,	0.037129,	0.000446
0.165000,	0.037129,	0.000446
0.195000,	0.037129,	0.000446
0.225000,	0.037129,	0.000446
0.255000,	0.037129,	0.000446
0.285000,	0.037129,	0.000446
0.315000,	0.037129,	0.000446
0.345000,	0.037129,	0.000446
0.375000,	0.037129,	0.000446
0.405000,	0.037129,	0.000446
0.435000,	0.037129,	0.000446
0.465000,	0.037129,	0.000446
0.495000,	0.037129,	0.000446
0.525000,	0.037129,	0.000446
0.555000,	0.037129,	0.000446
0.585000,	0.037129,	0.000446
0.615000,	0.037129,	0.000446
0.645000,	0.037129,	0.000446
0.675000,	0.037129,	0.000446
0.705000,	0.037129,	0.000446
0.735000,	0.037129,	0.000446
0.765000,	0.037129,	0.000446
0.795000,	0.037129,	0.000446
0.825000,	0.037129,	0.000446
0.855000,	0.037129,	0.000446
0.885000,	0.037129,	0.000446
0.915000,	0.037129,	0.000446
0.945000,	0.037129,	0.000446
0.975000,	0.037129,	0.000446
1.005000,	0.039567,	0.000445
1.035000,	0.045662,	0.000443
1.065000,	0.052976,	0.000441
1.095000,	0.060291,	0.000438
1.125000,	0.067605,	0.000436
1.155000,	0.074919,	0.000434
1.185000,	0.082234,	0.000432
1.215000,	0.089548,	0.000430
1.245000,	0.096863,	0.000427
1.275000,	0.104177,	0.000425
1.305000,	0.111491,	0.000423
1.335000,	0.118806,	0.000421
1.365000,	0.126120,	0.000418
1.395000,	0.133435,	0.000416
1.425000,	0.140749,	0.000414
1.455000,	0.148063,	0.000412
1.485000,	0.155378,	0.000410
1.515000,	0.162692,	0.000407
1.545000,	0.170006,	0.000405
1.575000,	0.177320,	0.000403
1.605000,	0.184635,	0.000401
1.635000,	0.191949,	0.000398
1.665000,	0.199264,	0.000396
1.695000,	0.206578,	0.000394
1.725000,	0.213892,	0.000392
1.755000,	0.221207,	0.000389
1.785000,	0.228521,	0.000387
1.815000,	0.235836,	0.000385
1.845000,	0.243150,	0.000383
1.875000,	0.250464,	0.000381
1.905000,	0.257779,	0.000378
1.935000,	0.265093,	0.000376
1.965000,	0.272407,	0.000374
1.995000,	0.278502,	0.000372
2.025000,	0.280940,	0.000371
2.055000,	0.280940,	0.000371
2.085000,	0.280940,	0.000371
2.115000,	0.280940,	0.000371
2.145000,	0.280940,	0.000371
2.175000,	0.280940,	0.000371
2.205000,	0.280940,	0.000371
2.235000,	0.280940,	0.000371
2.265000,	0.280940,	0.000371
2.295000,	0.280940,	0.000371
2.325000,	0.280940,	0.000371
2.355000,	0.280940,	0.000371
2.385000,	0.280940,	0.000371
2.415000,	0.280940,	0.000371
2.445000,	0.280940,	0.000371
2.475000,	0.280940,	0.000371
2.505000,	0.280940,	0.000371
2.535000,	0.280940,	0.000371
2.565000,	0.280940,	0.000371
2.595000,	0.280940,	0.000371
2.625000,	0.280940,	0.000371
2.655000,	0.280940,	0.000371
2.685000,	0.280940,	0.000371
2.715000,	0.280940,	0.000371
2.745000,	0.280940,	0.000371
2.775000,	0.280940,	0.000371
2.805000,	0.280940,	0.000371
2.835000,	0.280940,	0.000371
2.865000,	0.280940,	0.000371
2.895000,	0.280940,	0.000371
2.925000,	0.280940,	0.000371
2.955000,	0.280940,	0.000371
2.985000,	0.280940,	0.000371
0.015000,	0.051980,	0.000446
0.045000,	0.051980,	0.000446
0.075000,	0.051980,	0.000446
0.105000,	0.051980,	0.000446
0.135000,	0.051980,	0.000446
0.165000,	0.051980,	0.000446
0.195000,	0.051980,	0.000446
0.225000,	0.051980,	0.000446
0.255000,	0.051980,	0.000446
0.285000,	0.051980,	0.000446
0.315000,	0.051980,	0.000446
0.345000,	0.051980,	0.000446
0.375000,	0.051980,	0.000446
0.405000,	0.051980,	0.000446
0.435000,	0.051980,	0.000446
0.465000,	0.051980,	0.000446
0.495000,	0.051980,	0.000446
0.525000,	0.051980,	0.000446
0.555000,	0.051980,	0.000446
0.585000,	0.051980,	0.000446
0.615000,	0.051980,	0.000446
0.645000,	0.051980,	0.000446
0.675000,	0.051980,	0.000446
0.705000,	0.051980,	0.000446
0.735000,	0.051980,	0.000446
0.765000,	0.051980,	0.000446
0.795000,	0.051980,	0.000446
0.825000,	0.051980,	0.000446
0.855000,	0.051980,	0.000446
0.885000,	0.051980,	0.000446
0.915000,	0.051980,	0.000446
0.945000,	0.051980,	0.000446
0.975000,	0.051980,	0.000446
1.005000,	0.054393,	0.000445
1.035000,	0.060427,	0.000443
1.065000,	0.067667,	0.000441
1.095000,	0.074907,	0.000438
1.125000,	0.082148,	0.000436
1.155000,	0.089387,	0.000434
1.185000,	0.096627,	0.000432
1.215000,	0.103868,	0.000430
1.245000,	0.111108,	0.000427
1.275000,	0.118348,	0.000425
1.305000,	0.125588,	0.000423
1.335000,	0.132828,	0.000421
1.365000,	0.140068,	0.000418
1.395000,	0.147308,	0.000416
1.425000,	0.154549,	0.000414
1.455000,	0.161788,	0.000412
1.485000,	0.169028,	0.000410
1.515000,	0.176268,	0.000407
1.545000,	0.183509,	0.000405
1.575000,	0.190748,	0.000403
1.605000,	0.197989,	0.000401
1.635000,	0.205229,	0.000398
1.665000,	0.212469,	0.000396
1.695000,	0.219709,	0.000394
1.725000,	0.226949,	0.000392
1.755000,	0.234189,	0.000389
1.785000,	0.241429,	0.000387
1.815000,	0.248669,	0.000385
1.845000,	0.255910,	0.000383
1.875000,	0.263150,	0.000381
1.905000,	0.270390,	0.000378
1.935000,	0.277630,	0.000376
1.965000,	0.284870,	0.000374
1.995000,	0.290904,	0.000372
2.025000,	0.293317,	0.000371
2.055000,	0.293317,	0.000371
2.085000,	0.293317,	0.000371
2.115000,	0.293317,	0.000371
2.145000,	0.293317,	0.000371
2.175000,	0.293317,	0.000371
2.205000,	0.293317,	0.000371
2.235000,	0.293317,	0.000371
2.265000,	0.293317,	0.000371
2.295000,	0.293317,	0.000371
2.325000,	0.293317,	0.000371
2.355000,	0.293317,	0.000371
2.385000,	0.293317,	0.000371
2.415000,	0.293317,	0.000371
2.445000,	0.293317,	0.000371
2.475000,	0.293317,	0.000371
2.505000,	0.293317,	0.000371
2.535000,	0.293317,	0.000371
2.565000,	0.293317,	0.000371
2.595000,	0.293317,	0.000371
2.625000,	0.293317,	0.000371
2.655000,	0.293317,	0.000371
2.685000,	0.293317,	0.000371
2.715000,	0.293317,	0.000371
2.745000,	0.293317,	0.000371
2.775000,	0.293317,	0.000371
2.805000,	0.293317,	0.000371
2.835000,	0.293317,	0.000371
2.865000,	0.293317,	0.000371
2.895000,	0.293317,	0.000371
2.925000,	0.293317,	0.000371
2.955000,	0.293317,	0.000371
2.985000,	0.293317,	0.000371
0.015000,	0.066832,	0.000446
0.045000,	0.066832,	0.000446
0.075000,	0.066832,	0.000446
0.105000,	0.066832,	0.000446
0.135000,	0.066832,	0.000446
0.165000,	0.066832,	0.000446
0.195000,	0.066832,	0.000446
0.225000,	0.066832,	0.000446
0.255000,	0.066832,	0.000446
0.285000,	0.066832,	0.000446
0.315000,	0.066832,	0.000446
0.345000,	0.066832,	0.000446
0.375000,	0.066832,	0.000446
0.405000,	0.066832,	0.000446
0.435000,	0.066832,	0.000446
0.465000,	0.066832,	0.000446
0.495000,	0.066832,	0.000446
0.525000,	0.066832,	0.000446
0.555000,	0.066832,	0.000446
0.585000,	0.066832,	0.000446
0.615000,	0.066832,	0.000446
0.645000,	0.066832,	0.000446
0.675000,	0.066832,	0.000446
0.705000,	0.066832,	0.000446
0.735000,	0.066832,	0.000446
0.765000,	0.066832,	0.000446
0.795000,	0.066832,	0.000446
0.825000,	0.066832,	0.000446
0.855000,	0.066832,	0.000446
0.885000,	0.066832,	0.000446
0.915000,	0.066832,	0.000446
0.945000,	0.066832,	0.000446
0.975000,	0.066832,	0.000446
1.005000,	0.069220,	0.000445
1.035000,	0.075192,	0.000443
1.065000,	0.082358,	0.000441
1.095000,	0.089523,	0.000438
1.125000,	0.096689,	0.000436
1.155000,	0.103855,	0.000434
1.185000,	0.111021,	0.000432
1.215000,	0.118187,	0.000430
1.245000,	0.125353,	0.000427
1.275000,	0.132519,	0.000425
1.305000,	0.139684,	0.000423
1.335000,	0.146850,	0.000421
1.365000,	0.154016,	0.000418
1.395000,	0.161182,	0.000416
1.425000,	0.168348,	0.000414
1.455000,	0.175514,	0.000412
1.485000,	0.182679,	0.000410
1.515000,	0.189845,	0.000407
1.545000,	0.197011,	0.000405
1.575000,	0.204177,	0.000403
1.605000,	0.211342,	0.000401
1.635000,	0.218508,	0.000398
1.665000,	0.225675,	0.000396
1.695000,	0.232840,	0.000394
1.725000,	0.240006,	0.000392
1.755000,	0.247172,	0.000389
1.785000,	0.254338,	0.000387
1.815000,	0.261503,	0.000385
1.845000,	0.268669,	0.000383
1.875000,	0.275836,	0.000381
1.905000,	0.283001,	0.000378
1.935000,	0.290167,	0.000376
1.965000,	0.297333,	0.000374
1.995000,	0.303305,	0.000372
2.025000,	0.305693,	0.000371
2.055000,	0.305693,	0.000371
2.085000,	0.305693,	0.000371
2.115000,	0.305693,	0.000371
2.145000,	0.305693,	0.000371
2.175000,	0.305693,	0.000371
2.205000,	0.305693,	0.000371
2.235000,	0.305693,	0.000371
2.265000,	0.305693,	0.000371
2.295000,	0.305693,	0.000371
2.325000,	0.305693,	0.000371
2.355000,	0.305693,	0.000371
2.385000,	0.305693,	0.000371
2.415000,	0.305693,	0.000371
2.445000,	0.305693,	0.000371
2.475000,	0.305693,	0.000371
2.505000,	0.305693,	0.000371
2.535000,	0.305693,	0.000371
2.565000,	0.305693,	0.000371
2.595000,	0.305693,	0.000371
2.625000,	0.305693,	0.000371
2.655000,	0.305693,	0.000371
2.685000,	0.305693,	0.000371
2.715000,	0.305693,	0.000371
2.745000,	0.305693,	0.000371
2.775000,	0.305693,	0.000371
2.805000,	0.305693,	0.000371
2.835000,	0.305693,	0.000371
2.865000,	0.305693,	0.000371
2.895000,	0.305693,	0.000371
2.925000,	0.305693,	0.000371
2.955000,	0.305693,	0.000371
2.985000,	0.305693,	0.000371
0.015000,	0.081683,	0.000446
0.045000,	0.081683,	0.000446
0.075000,	0.081683,	0.000446
0.105000,	0.081683,	0.000446
0.135000,	0.081683,	0.000446
0.165000,	0.081683,	0.000446
0.195000,	0.081683,	0.000446
0.225000,	0.081683,	0.000446
0.255000,	0.081683,	0.000446
0.285000,	0.081683,	0.000446
0.315000,	0.081683,	0.000446
0.345000,	0.081683,	0.000446
0.375000,	0.081683,	0.000446
0.405000,	0.081683,	0.000446
0.435000,	0.081683,	0.000446
0.465000,	0.081683,	0.000446
0.495000,	0.081683,	0.000446
0.525000,	0.081683,	0.000446
0.555000,	0.081683,	0.000446
0.585000,	0.081683,	0.000446
0.615000,	0.081683,	0.000446
0.645000,	0.081683,	0.000446
0.675000,	0.081683,	0.000446
0.705000,	0.081683,	0.000446
0.735000,	0.081683,	0.000446
0.765000,	0.081683,	0.000446
0.795000,	0.081683,	0.000446
0.825000,	0.081683,	0.000446
0.855000,	0.081683,	0.000446
0.885000,	0.081683,	0.000446
0.915000,	0.081683,	0.000446
0.945000,	0.081683,	0.000446
0.975000,	0.081683,	0.000446
1.005000,	0.084047,	0.000445
1.035000,	0.089957,	0.000443
1.065000,	0.097048,	0.000441
1.095000,	0.104140,	0.000438
1.125000,	0.111231,	0.000436
1.155000,	0.118323,	0.000434
1.185000,	0.125415,	0.000432
1.215000,	0.132506,	0.000430
1.245000,	0.139598,	0.000427
1.275000,	0.146690,	0.000425
1.305000,	0.153781,	0.000423
1.335000,	0.160872,	0.000421
1.365000,	0.167964,	0.000418
1.395000,	0.175056,	0.000416
1.425000,	0.182147,	0.000414
1.455000,	0.189239,	0.000412
1.485000,	0.196331,	0.000410
1.515000,	0.203422,	0.000407
1.545000,	0.210514,	0.000405
1.575000,	0.217605,	0.000403
1.605000,	0.224697,	0.000401
1.635000,	0.231788,	0.000398
1.665000,	0.238880,	0.000396
1.695000,	0.245972,	0.000394
1.725000,	0.253063,	0.000392
1.755000,	0.260155,	0.000389
1.785000,	0.267246,	0.000387
1.815000,	0.274338,	0.000385
1.845000,	0.281429,	0.000383
1.875000,	0.288521,	0.000381
1.905000,	0.295613,	0.000378
1.935000,	0.302704,	0.000376
1.965000,	0.309796,	0.000374
1.995000,	0.315705,	0.000372
2.025000,	0.318069,	0.000371
2.055000,	0.318069,	0.000371
2.085000,	0.318069,	0.000371
2.115000,	0.318069,	0.000371
2.145000,	0.318069,	0.000371
2.175000,	0.318069,	0.000371
2.205000,	0.318069,	0.000371
2.235000,	0.318069,	0.000371
2.265000,	0.318069,	0.000371
2.295000,	0.318069,	0.000371
2.325000,	0.318069,	0.000371
2.355000,	0.318069,	0.000371
2.385000,	0.318069,	0.000371
2.415000,	0.318069,	0.000371
2.445000,	0.318069,	0.000371
2.475000,	0.318069,	0.000371
2.505000,	0.318069,	0.000371
2.535000,	0.318069,	0.000371
2.565000,	0.318069,	0.000371
2.595000,	0.318069,	0.000371
2.625000,	0.318069,	0.000371
2.655000,	0.318069,	0.000371
2.685000,	0.318069,	0.000371
2.715000,	0.318069,	0.000371
2.745000,	0.318069,	0.000371
2.775000,	0.318069,	0.000371
2.805000,	0.318069,	0.000371
2.835000,	0.318069,	0.000371
2.865000,	0.318069,	0.000371
2.895000,	0.318069,	0.000371
2.925000,	0.318069,	0.000371
2.955000,	0.318069,	0.000371
2.985000,	0.318069,	0.000371
0.015000,	0.096534,	0.000446
0.045000,	0.096534,	0.000446
0.075000,	0.096534,	0.000446
0.105000,	0.096534,	0.000446
0.135000,	0.096534,	0.000446
0.165000,	0.096534,	0.000446
0.195000,	0.096534,	0.000446
0.225000,	0.096534,	0.000446
0.255000,	0.096534,	0.000446
0.285000,	0.096534,	0.000446
0.315000,	0.096534,	0.000446
0.345000,	0.096534,	0.000446
0.375000,	0.096534,	0.000446
0.405000,	0.096534,	0.000446
0.435000,	0.096534,	0.000446
0.465000,	0.096534,	0.000446
0.495000,	0.096534,	0.000446
0.525000,	0.096534,	0.000446
0.555000,	0.096534,	0.000446
0.585000,	0.096534,	0.000446
0.615000,	0.096534,	0.000446
0.645000,	0.096534,	0.000446
0.675000,	0.096534,	0.000446
0.705000,	0.096534,	0.000446
0.735000,	0.096534,	0.000446
0.765000,	0.096534,	0.000446
0.795000,	0.096534,	0.000446
0.825000,	0.096534,	0.000446
0.855000,	0.096534,	0.000446
0.885000,	0.096534,	0.000446
0.915000,	0.096534,	0.000446
0.945000,	0.096534,	0.000446
0.975000,	0.096534,	0.000446
1.005000,	0.098874,	0.000445
1.035000,	0.104721,	0.000443
1.065000,	0.111739,	0.000441
1.095000,	0.118756,	0.000438
1.125000,	0.125773,	0.000436
1.155000,	0.132791,	0.000434
1.185000,	0.139808,	0.000432
1.215000,	0.146825,	0.000430
1.245000,	0.153843,	0.000427
1.275000,	0.160860,	0.000425
1.305000,	0.167878,	0.000423
1.335000,	0.174895,	0.000421
1.365000,	0.181912,	0.000418
1.395000,	0.188929,	0.000416
1.425000,	0.195947,	0.000414
1.455000,	0.202964,	0.000412
1.485000,	0.209981,	0.000410
1.515000,	0.216999,	0.000407
1.545000,	0.224016,	0.000405
1.575000,	0.231034,	0.000403
1.605000,	0.238051,	0.000401
1.635000,	0.245068,	0.000398
1.665000,	0.252085,	0.000396
1.695000,	0.259103,	0.000394
1.725000,	0.266120,	0.000392
1.755000,	0.273138,	0.000389
1.785000,	0.280155,	0.000387
1.815000,	0.287172,	0.000385
1.845000,	0.294189,	0.000383
1.875000,	0.301207,	0.000381
1.905000,	0.308224,	0.000378
1.935000,	0.315242,	0.000376
1.965000,	0.322259,	0.000374
1.995000,	0.328106,	0.000372
2.025000,	0.330446,	0.000371
2.055000,	0.330446,	0.000371
2.085000,	0.330446,	0.000371
2.115000,	0.330446,	0.000371
2.145000,	0.330446,	0.000371
2.175000,	0.330446,	0.000371
2.205000,	0.330446,	0.000371
2.235000,	0.330446,	0.000371
2.265000,	0.330446,	0.000371
2.295000,	0.330446,	0.000371
2.325000,	0.330446,	0.000371
2.355000,	0.330446,	0.000371
2.385000,	0.330446,	0.000371
2.415000,	0.330446,	0.000371
2.445000,	0.330446,	0.000371
2.475000,	0.330446,	0.000371
2.505000,	0.330446,	0.000371
2.535000,	0.330446,	0.000371
2.565000,	0.330446,	0.000371
2.595000,	0.330446,	0.000371
2.625000,	0.330446,	0.000371
2.655000,	0.330446,	0.000371
2.685000,	0.330446,	0.000371
2.715000,	0.330446,	0.000371
2.745000,	0.330446,	0.000371
2.775000,	0.330446,	0.000371
2.805000,	0.330446,	0.000371
2.835000,	0.330446,	0.000371
2.865000,	0.330446,	0.000371
2.895000,	0.330446,	0.000371
2.925000,	0.330446,	0.000371
2.955000,	0.330446,	0.000371
2.985000,	0.330446,	0.000371
0.015000,	0.111386,	0.000446
0.045000,	0.111386,	0.000446
0.075000,	0.111386,	0.000446
0.105000,	0.111386,	0.000446
0.135000,	0.111386,	0.000446
0.165000,	0.111386,	0.000446
0.195000,	0.111386,	0.000446
0.225000,	0.111386,	0.000446
0.255000,	0.111386,	0.000446
0.285000,	0.111386,	0.000446
0.315000,	0.111386,	0.000446
0.345000,	0.111386,	0.000446
0.375000,	0.111386,	0.000446
0.405000,	0.111386,	0.000446
0.435000,	0.111386,	0.000446
0.465000,	0.111386,	0.000446
0.495000,	0.111386,	0.000446
0.525000,	0.111386,	0.000446
0.555000,	0.111386,	0.000446
0.585000,	0.111386,	0.000446
0.615000,	0.111386,	0.000446
0.645000,	0.111386,	0.000446
0.675000,	0.111386,	0.000446
0.705000,	0.111386,	0.000446
0.735000,	0.111386,	0.000446
0.765000,	0.111386,	0.000446
0.795000,	0.111386,	0.000446
0.825000,	0.111386,	0.000446
0.855000,	0.111386,	0.000446
0.885000,	0.111386,	0.000446
0.915000,	0.111386,	0.000446
0.945000,	0.111386,	0.000446
0.975000,	0.111386,	0.000446
1.005000,	0.113701,	0.000445
1.035000,	0.119486,	0.000443
1.065000,	0.126429,	0.000441
1.095000,	0.133373,	0.000439
1.125000,	0.140316,	0.000436
1.155000,	0.147259,	0.000434
1.185000,	0.154202,	0.000432
1.215000,	0.161144,	0.000430
1.245000,	0.168088,	0.000427
1.275000,	0.175031,	0.000425
1.305000,	0.181974,	0.000423
1.335000,	0.188917,	0.000421
1.365000,	0.195860,	0.000418
1.395000,	0.202803,	0.000416
1.425000,	0.209746,	0.000414
1.455000,	0.216689,	0.000412
1.485000,	0.223633,	0.000410
1.515000,	0.230575,	0.000407
1.545000,	0.237519,	0.000405
1.575000,	0.244462,	0.000403
1.605000,	0.251405,	0.000401
1.635000,	0.258348,	0.000398
1.665000,	0.265291,	0.000396
1.695000,	0.272234,	0.000394
1.725000,	0.279177,	0.000392
1.755000,	0.286120,	0.000389
1.785000,	0.293063,	0.000387
1.815000,	0.300006,	0.000385
1.845000,	0.306949,	0.000383
1.875000,	0.313892,	0.000381
1.905000,	0.320835,	0.000378
1.935000,	0.327779,	0.000376
1.965000,	0.334722,	0.000374
1.995000,	0.340508,	0.000372
2.025000,	0.342822,	0.000371
2.055000,	0.342822,	0.000371
2.085000,	0.342822,	0.000371
2.115000,	0.342822,	0.000371
2.145000,	0.342822,	0.000371
2.175000,	0.342822,	0.000371
2.205000,	0.342822,	0.000371
2.235000,	0.342822,	0.000371
2.265000,	0.342822,	0.000371
2.295000,	0.342822,	0.000371
2.325000,	0.342822,	0.000371
2.355000,	0.342822,	0.000371
2.385000,	0.342822,	0.000371
2.415000,	0.342822,	0.000371
2.445000,	0.342822,	0.000371
2.475000,	0.342822,	0.000371
2.505000,	0.342822,	0.000371
2.535000,	0.342822,	0.000371
2.565000,	0.342822,	0.000371
2.595000,	0.342822,	0.000371
2.625000,	0.342822,	0.000371
2.655000,	0.342822,	0.000371
2.685000,	0.342822,	0.000371
2.715000,	0.342822,	0.000371
2.745000,	0.342822,	0.000371
2.775000,	0.342822,	0.000371
2.805000,	0.342822,	0.000371
2.835000,	0.342822,	0.000371
2.865000,	0.342822,	0.000371
2.895000,	0.342822,	0.000371
2.925000,	0.342822,	0.000371
2.955000,	0.342822,	0.000371
2.985000,	0.342822,	0.000371
0.015000,	0.126238,	0.000446
0.045000,	0.126238,	0.000446
0.075000,	0.126238,	0.000446
0.105000,	0.126238,	0.000446
0.135000,	0.126238,	0.000446
0.165000,	0.126238,	0.000446
0.195000,	0.126238,	0.000446
0.225000,	0.126238,	0.000446
0.255000,	0.126238,	0.000446
0.285000,	0.126238,	0.000446
0.315000,	0.126238,	0.000446
0.345000,	0.126238,	0.000446
0.375000,	0.126238,	0.000446
0.405000,	0.126238,	0.000446
0.435000,	0.126238,	0.000446
0.465000,	0.126238,	0.000446
0.495000,	0.126238,	0.000446
0.525000,	0.126238,	0.000446
0.555000,	0.126238,	0.000446
0.585000,	0.126238,	0.000446
0.615000,	0.126238,	0.000446
0.645000,	0.126238,	0.000446
0.675000,	0.126238,	0.000446
0.705000,	0.126238,	0.000446
0.735000,	0.126238,	0.000446
0.765000,	0.126238,	0.000446
0.795000,	0.126238,	0.000446
0.825000,	0.126238,	0.000446
0.855000,	0.126238,	0.000446
0.885000,	0.126238,	0.000446
0.915000,	0.126238,	0.000446
0.945000,	0.126238,	0.000446
0.975000,	0.126238,	0.000446
1.005000,	0.128527,	0.000445
1.035000,	0.134252,	0.000443
1.065000,	0.141120,	0.000441
1.095000,	0.147989,	0.000438
1.125000,	0.154858,	0.000436
1.155000,	0.161727,	0.000434
1.185000,	0.168595,	0.000432
1.215000,	0.175464,	0.000430
1.245000,	0.182333,	0.000427
1.275000,	0.189201,	0.000425
1.305000,	0.196071,	0.000423
1.335000,	0.202939,	0.000421
1.365000,	0.209808,	0.000418
1.395000,	0.216677,	0.000416
1.425000,	0.223546,	0.000414
1.455000,	0.230414,	0.000412
1.485000,	0.237283,	0.000410
1.515000,	0.244152,	0.000407
1.545000,	0.251021,	0.000405
1.575000,	0.257890,	0.000403
1.605000,	0.264759,	0.000401
1.635000,	0.271628,	0.000398
1.665000,	0.278497,	0.000396
1.695000,	0.285365,	0.000394
1.725000,	0.292234,	0.000392
1.755000,	0.299102,	0.000389
1.785000,	0.305972,	0.000387
1.815000,	0.312840,	0.000385
1.845000,	0.319709,	0.000383
1.875000,	0.326578,	0.000381
1.905000,	0.333447,	0.000378
1.935000,	0.340315,	0.000376
1.965000,	0.347185,	0.000374
1.995000,	0.352909,	0.000372
2.025000,	0.355198,	0.000371
2.055000,	0.355198,	0.000371
2.085000,	0.355198,	0.000371
2.115000,	0.355198,	0.000371
2.145000,	0.355198,	0.000371
2.175000,	0.355198,	0.000371
2.205000,	0.355198,	0.000371
2.235000,	0.355198,	0.000371
2.265000,	0.355198,	0.000371
2.295000,	0.355198,	0.000371
2.325000,	0.355198,	0.000371
2.355000,	0.355198,	0.000371
2.385000,	0.355198,	0.000371
2.415000,	0.355198,	0.000371
2.445000,	0.355198,	0.000371
2.475000,	0.355198,	0.000371
2.505000,	0.355198,	0.000371
2.535000,	0.355198,	0.000371
2.565000,	0.355198,	0.000371
2.595000,	0.355198,	0.000371
2.625000,	0.355198,	0.000371
2.655000,	0.355198,	0.000371
2.685000,	0.355198,	0.000371
2.715000,	0.355198,	0.000371
2.745000,	0.355198,	0.000371
2.775000,	0.355198,	0.000371
2.805000,	0.355198,	0.000371
2.835000,	0.355198,	0.000371
2.865000,	0.355198,	0.000371
2.895000,	0.355198,	0.000371
2.925000,	0.355198,	0.000371
2.955000,	0.355198,	0.000371
2.985000,	0.355198,	0.000371
0.015000,	0.141089,	0.000446
0.045000,	0.141089,	0.000446
0.075000,	0.141089,	0.000446
0.105000,	0.141089,	0.000446
0.135000,	0.141089,	0.000446
0.165000,	0.141089,	0.000446
0.195000,	0.141089,	0.000446
0.225000,	0.141089,	0.000446
0.255000,	0.141089,	0.000446
0.285000,	0.141089,	0.000446
0.315000,	0.141089,	0.000446
0.345000,	0.141089,	0.000446
0.375000,	0.141089,	0.000446
0.405000,	0.141089,	0.000446
0.435000,	0.141089,	0.000446
0.465000,	0.141089,	0.000446
0.495000,	0.141089,	0.000446
0.525000,	0.141089,	0.000446
0.555000,	0.141089,	0.000446
0.585000,	0.141089,	0.000446
0.615000,	0.141089,	0.000446
0.645000,	0.141089,	0.000446
0.675000,	0.141089,	0.000446
0.705000,	0.141089,	0.000446
0.735000,	0.141089,	0.000446
0.765000,	0.141089,	0.000446
0.795000,	0.141089,	0.000446
0.825000,	0.141089,	0.000446
0.855000,	0.141089,	0.000446
0.885000,	0.141089,	0.000446
0.915000,	0.141089,	0.000446
0.945000,	0.141089,	0.000446
0.975000,	0.141089,	0.000446
1.005000,	0.143354,	0.000445
1.035000,	0.149016,	0.000443
1.065000,	0.155811,	0.000441
1.095000,	0.162605,	0.000438
1.125000,	0.169400,	0.000436
1.155000,	0.176195,	0.000434
1.185000,	0.182989,	0.000432
1.215000,	0.189783,	0.000430
1.245000,	0.196578,	0.000427
1.275000,	0.203373,	0.000425
1.305000,	0.210167,	0.000423
1.335000,	0.216961,	0.000421
1.365000,	0.223756,	0.000418
1.395000,	0.230551,	0.000416
1.425000,	0.237345,	0.000414
1.455000,	0.244140,	0.000412
1.485000,	0.250935,	0.000410
1.515000,	0.257729,	0.000407
1.545000,	0.264523,	0.000405
1.575000,	0.271318,	0.000403
1.605000,	0.278112,	0.000401
1.635000,	0.284907,	0.000398
1.665000,	0.291702,	0.000396
1.695000,	0.298496,	0.000394
1.725000,	0.305291,	0.000392
1.755000,	0.312085,	0.000389
1.785000,	0.318880,	0.000387
1.815000,	0.325674,	0.000385
1.845000,	0.332469,	0.000383
1.875000,	0.339264,	0.000381
1.905000,	0.346058,	0.000378
1.935000,	0.352853,	0.000376
1.965000,	0.359647,	0.000374
1.995000,	0.365309,	0.000372
2.025000,	0.367574,	0.000371
2.055000,	0.367574,	0.000371
2.085000,	0.367574,	0.000371
2.115000,	0.367574,	0.000371
2.145000,	0.367574,	0.000371
2.175000,	0.367574,	0.000371
2.205000,	0.367574,	0.000371
2.235000,	0.367574,	0.000371
2.265000,	0.367574,	0.000371
2.295000,	0.367574,	0.000371
2.325000,	0.367574,	0.000371
2.355000,	0.367574,	0.000371
2.385000,	0.367574,	0.000371
2.415000,	0.367574,	0.000371
2.445000,	0.367574,	0.000371
2.475000,	0.367574,	0.000371
2.505000,	0.367574,	0.000371
2.535000,	0.367574,	0.000371
2.565000,	0.367574,	0.000371
2.595000,	0.367574,	0.000371
2.625000,	0.367574,	0.000371
2.655000,	0.367574,	0.000371
2.685000,	0.367574,	0.000371
2.715000,	0.367574,	0.000371
2.745000,	0.367574,	0.000371
2.775000,	0.367574,	0.000371
2.805000,	0.367574,	0.000371
2.835000,	0.367574,	0.000371
2.865000,	0.367574,	0.000371
2.895000,	0.367574,	0.000371
2.925000,	0.367574,	0.000371
2.955000,	0.367574,	0.000371
2.985000,	0.367574,	0.000371
0.015000,	0.155941,	0.000446
0.045000,	0.155941,	0.000446
0.075000,	0.155941,	0.000446
0.105000,	0.155941,	0.000446
0.135000,	0.155941,	0.000446
0.165000,	0.155941,	0.000446
0.195000,	0.155941,	0.000446
0.225000,	0.155941,	0.000446
0.255000,	0.155941,	0.000446
0.285000,	0.155941,	0.000446
0.315000,	0.155941,	0.000446
0.345000,	0.155941,	0.000446
0.375000,	0.155941,	0.000446
0.405000,	0.155941,	0.000446
0.435000,	0.155941,	0.000446
0.465000,	0.155941,	0.000446
0.495000,	0.155941,	0.000446
0.525000,	0.155941,	0.000446
0.555000,	0.155941,	0.000446
0.585000,	0.155941,	0.000446
0.615000,	0.155941,	0.000446
0.645000,	0.155941,	0.000446
0.675000,	0.155941,	0.000446
0.705000,	0.155941,	0.000446
0.735000,	0.155941,	0.000446
0.765000,	0.155941,	0.000446
0.795000,	0.155941,	0.000446
0.825000,	0.155941,	0.000446
0.855000,	0.155941,	0.000446
0.885000,	0.155941,	0.000446
0.915000,	0.155941,	0.000446