TITLE = "MeshVolumeStats"
VARIABLES = "X", "Y", "VOL"
ZONE I=100, J=50, DATAPACKING=POINT
0.002070,	10000.000330,	0.000003
0.006210,	10000.000334,	0.000003
0.010351,	10000.000340,	0.000003
0.014491,	10000.000346,	0.000003
0.018631,	10000.000352,	0.000003
0.022771,	10000.000359,	0.000003
0.026911,	10000.000365,	0.000003
0.031052,	10000.000372,	0.000003
0.035192,	10000.000380,	0.000003
0.039332,	10000.000387,	0.000003
0.043472,	10000.000395,	0.000003
0.047612,	10000.000402,	0.000003
0.051753,	10000.000410,	0.000003
0.055893,	10000.000418,	0.000003
0.060033,	10000.000426,	0.000004
0.064173,	10000.000433,	0.000004
0.068313,	10000.000441,	0.000004
0.072454,	10000.000449,	0.000004
0.076594,	10000.000457,	0.000004
0.080734,	10000.000465,	0.000004
0.084874,	10000.000473,	0.000004
0.089014,	10000.000481,	0.000004
0.093155,	10000.000489,	0.000004
0.097295,	10000.000497,	0.000004
0.101435,	10000.000505,	0.000004
0.105575,	10000.000513,	0.000004
0.109715,	10000.000521,	0.000004
0.113856,	10000.000529,	0.000004
0.117996,	10000.000536,	0.000004
0.122136,	10000.000544,	0.000005
0.126276,	10000.000552,	0.000005
0.130416,	10000.000559,	0.000005
0.134557,	10000.000566,	0.000005
0.138697,	10000.000574,	0.000005
0.142837,	10000.000581,	0.000005
0.146977,	10000.000588,	0.000005
0.151117,	10000.000595,	0.000005
0.155257,	10000.000602,	0.000005
0.159398,	10000.000609,	0.000005
0.163538,	10000.000615,	0.000005
0.167678,	10000.000622,	0.000005
0.171818,	10000.000628,	0.000005
0.175959,	10000.000635,	0.000005
0.180099,	10000.000641,	0.000005
0.184239,	10000.000647,	0.000005
0.188379,	10000.000652,	0.000005
0.192519,	10000.000658,	0.000005
0.196659,	10000.000663,	0.000005
0.200800,	10000.000669,	0.000006
0.204940,	10000.000674,	0.000006
0.209080,	10000.000679,	0.000006
0.213220,	10000.000683,	0.000006
0.217361,	10000.000688,	0.000006
0.221501,	10000.000692,	0.000006
0.225641,	10000.000696,	0.000006
0.229781,	10000.000700,	0.000006
0.233921,	10000.000704,	0.000006
0.238061,	10000.000708,	0.000006
0.242202,	10000.000711,	0.000006
0.246342,	10000.000715,	0.000006
0.250482,	10000.000718,	0.000006
0.254622,	10000.000721,	0.000006
0.258763,	10000.000724,	0.000006
0.262903,	10000.000727,	0.000006
0.267043,	10000.000730,	0.000006
0.271183,	10000.000732,	0.000006
0.275323,	10000.000735,	0.000006
0.279463,	10000.000737,	0.000006
0.283604,	10000.000740,	0.000006
0.287744,	10000.000742,	0.000006
0.291884,	10000.000744,	0.000006
0.296024,	10000.000746,	0.000006
0.300165,	10000.000747,	0.000006
0.304305,	10000.000749,	0.000006
0.308445,	10000.000751,	0.000006
0.312585,	10000.000753,	0.000006
0.316725,	10000.000754,	0.000006
0.320866,	10000.000755,	0.000006
0.325006,	10000.000757,	0.000006
0.329146,	10000.000758,	0.000006
0.333286,	10000.000759,	0.000006
0.337426,	10000.000760,	0.000006
0.341567,	10000.000761,	0.000006
0.345707,	10000.000762,	0.000006
0.349847,	10000.000763,	0.000006
0.353987,	10000.000764,	0.000006
0.358127,	10000.000764,	0.000006
0.362267,	10000.000765,	0.000006
0.366408,	10000.000765,	0.000006
0.370548,	10000.000766,	0.000006
0.374688,	10000.000766,	0.000006
0.378828,	10000.000767,	0.000006
0.382969,	10000.000767,	0.000006
0.387109,	10000.000768,	0.000006
0.391249,	10000.000768,	0.000006
0.395389,	10000.000768,	0.000006
0.399529,	10000.000768,	0.000006
0.403670,	10000.000768,	0.000006
0.407810,	10000.000768,	0.000006
0.411950,	10000.000768,	0.000006
0.002070,	10000.000989,	0.000003
0.006210,	10000.001002,	0.000003
0.010351,	10000.001019,	0.000003
0.014491,	10000.001037,	0.000003
0.018631,	10000.001056,	0.000003
0.022771,	10000.001076,	0.000003
0.026911,	10000.001096,	0.000003
0.031052,	10000.001117,	0.000003
0.035192,	10000.001139,	0.000003
0.039332,	10000.001161,	0.000003
0.043472,	10000.001184,	0.000003
0.047612,	10000.001206,	0.000003
0.051753,	10000.001230,	0.000003
0.055893,	10000.001253,	0.000003
0.060033,	10000.001277,	0.000004
0.064173,	10000.001300,	0.000004
0.068313,	10000.001324,	0.000004
0.072454,	10000.001348,	0.000004
0.076594,	10000.001372,	0.000004
0.080734,	10000.001396,	0.000004
0.084874,	10000.001420,	0.000004
0.089014,	10000.001444,	0.000004
0.093155,	10000.001468,	0.000004
0.097295,	10000.001492,	0.000004
0.101435,	10000.001515,	0.000004
0.105575,	10000.001539,	0.000004
0.109715,	10000.001562,	0.000004
0.113856,	10000.001586,	0.000004
0.117996,	10000.001609,	0.000004
0.122136,	10000.001632,	0.000005
0.126276,	10000.001655,	0.000005
0.130416,	10000.001677,	0.000005
0.134557,	10000.001699,	0.000005
0.138697,	10000.001721,	0.000005
0.142837,	10000.001743,	0.000005
0.146977,	10000.001764,	0.000005
0.151117,	10000.001785,	0.000005
0.155257,	10000.001806,	0.000005
0.159398,	10000.001826,	0.000005
0.163538,	10000.001846,	0.000005
0.167678,	10000.001866,	0.000005
0.171818,	10000.001885,	0.000005
0.175959,	10000.001904,	0.000005
0.180099,	10000.001922,	0.000005
0.184239,	10000.001940,	0.000005
0.188379,	10000.001957,	0.000005
0.192519,	10000.001974,	0.000005
0.196659,	10000.001990,	0.000005
0.200800,	10000.002006,	0.000006
0.204940,	10000.002021,	0.000006
0.209080,	10000.002036,	0.000006
0.213220,	10000.002050,	0.000006
0.217361,	10000.002064,	0.000006
0.221501,	10000.002077,	0.000006
0.225641,	10000.002089,	0.000006
0.229781,	10000.002101,	0.000006
0.233921,	10000.002113,	0.000006
0.238061,	10000.002124,	0.000006
0.242202,	10000.002134,	0.000006
0.246342,	10000.002144,	0.000006
0.250482,	10000.002154,	0.000006
0.254622,	10000.002164,	0.000006
0.258763,	10000.002173,	0.000006
0.262903,	10000.002181,	0.000006
0.267043,	10000.002189,	0.000006
0.271183,	10000.002197,	0.000006
0.275323,	10000.002205,	0.000006
0.279463,	10000.002212,	0.000006
0.283604,	10000.002219,	0.000006
0.287744,	10000.002225,	0.000006
0.291884,	10000.002231,	0.000006
0.296024,	10000.002237,	0.000006
0.300165,	10000.002242,	0.000006
0.304305,	10000.002248,	0.000006
0.308445,	10000.002253,	0.000006
0.312585,	10000.002258,	0.000006
0.316725,	10000.002262,	0.000006
0.320866,	10000.002266,	0.000006
0.325006,	10000.002270,	0.000006
0.329146,	10000.002273,	0.000006
0.333286,	10000.002277,	0.000006
0.337426,	10000.002280,	0.000006
0.341567,	10000.002283,	0.000006
0.345707,	10000.002286,	0.000006
0.349847,	10000.002289,	0.000006
0.353987,	10000.002291,	0.000006
0.358127,	10000.002293,	0.000006
0.362267,	10000.002295,	0.000006
0.366408,	10000.002296,	0.000006
0.370548,	10000.002298,	0.000006
0.374688,	10000.002299,	0.000006
0.378828,	10000.002301,	0.000006
0.382969,	10000.002302,	0.000006
0.387109,	10000.002303,	0.000006
0.391249,	10000.002303,	0.000006
0.395389,	10000.002303,	0.000006
0.399529,	10000.002304,	0.000006
0.403670,	10000.002304,	0.000006
0.407810,	10000.002305,	0.000006
0.411950,	10000.002305,	0.000006
0.002070,	10000.001648,	0.000003
0.006210,	10000.001670,	0.000003
0.010351,	10000.001698,	0.000003
0.014491,	10000.001728,	0.000003
0.018631,	10000.001759,	0.000003
0.022771,	10000.001793,	0.000003
0.026911,	10000.001827,	0.000003
0.031052,	10000.001862,	0.000003
0.035192,	10000.001898,	0.000003
0.039332,	10000.001935,	0.000003
0.043472,	10000.001973,	0.000003
0.047612,	10000.002011,	0.000003
0.051753,	10000.002049,	0.000003
0.055893,	10000.002088,	0.000003
0.060033,	10000.002128,	0.000004
0.064173,	10000.002167,	0.000004
0.068313,	10000.002207,	0.000004
0.072454,	10000.002247,	0.000004
0.076594,	10000.002287,	0.000004
0.080734,	10000.002327,	0.000004
0.084874,	10000.002367,	0.000004
0.089014,	10000.002407,	0.000004
0.093155,	10000.002446,	0.000004
0.097295,	10000.002486,	0.000004
0.101435,	10000.002526,	0.000004
0.105575,	10000.002565,	0.000004
0.109715,	10000.002604,	0.000004
0.113856,	10000.002643,	0.000004
0.117996,	10000.002682,	0.000004
0.122136,	10000.002720,	0.000005
0.126276,	10000.002758,	0.000005
0.130416,	10000.002795,	0.000005
0.134557,	10000.002832,	0.000005
0.138697,	10000.002869,	0.000005
0.142837,	10000.002905,	0.000005
0.146977,	10000.002940,	0.000005
0.151117,	10000.002975,	0.000005
0.155257,	10000.003010,	0.000005
0.159398,	10000.003044,	0.000005
0.163538,	10000.003077,	0.000005
0.167678,	10000.003110,	0.000005
0.171818,	10000.003141,	0.000005
0.175959,	10000.003173,	0.000005
0.180099,	10000.003203,	0.000005
0.184239,	10000.003233,	0.000005
0.188379,	10000.003262,	0.000005
0.192519,	10000.003290,	0.000005
0.196659,	10000.003317,	0.000005
0.200800,	10000.003343,	0.000006
0.204940,	10000.003369,	0.000006
0.209080,	10000.003393,	0.000006
0.213220,	10000.003417,	0.000006
0.217361,	10000.003439,	0.000006
0.221501,	10000.003461,	0.000006
0.225641,	10000.003482,	0.000006
0.229781,	10000.003502,	0.000006
0.233921,	10000.003521,	0.000006
0.238061,	10000.003539,	0.000006
0.242202,	10000.003557,	0.000006
0.246342,	10000.003574,	0.000006
0.250482,	10000.003590,	0.000006
0.254622,	10000.003607,	0.000006
0.258763,	10000.003621,	0.000006
0.262903,	10000.003635,	0.000006
0.267043,	10000.003648,	0.000006
0.271183,	10000.003662,	0.000006
0.275323,	10000.003675,	0.000006
0.279463,	10000.003687,	0.000006
0.283604,	10000.003699,	0.000006
0.287744,	10000.003709,	0.000006
0.291884,	10000.003718,	0.000006
0.296024,	10000.003728,	0.000006
0.300165,	10000.003737,	0.000006
0.304305,	10000.003747,	0.000006
0.308445,	10000.003755,	0.000006
0.312585,	10000.003763,	0.000006
0.316725,	10000.003771,	0.000006
0.320866,	10000.003777,	0.000006
0.325006,	10000.003783,	0.000006
0.329146,	10000.003788,	0.000006
0.333286,	10000.003794,	0.000006
0.337426,	10000.003800,	0.000006
0.341567,	10000.003805,	0.000006
0.345707,	10000.003810,	0.000006
0.349847,	10000.003814,	0.000006
0.353987,	10000.003818,	0.000006
0.358127,	10000.003822,	0.000006
0.362267,	10000.003824,	0.000006
0.366408,	10000.003827,	0.000006
0.370548,	10000.003830,	0.000006
0.374688,	10000.003832,	0.000006
0.378828,	10000.003834,	0.000006
0.382969,	10000.003836,	0.000006
0.387109,	10000.003838,	0.000006
0.391249,	10000.003838,	0.000006
0.395389,	10000.003839,	0.000006
0.399529,	10000.003840,	0.000006
0.403670,	10000.003841,	0.000006
0.407810,	10000.003841,	0.000006
0.411950,	10000.003842,	0.000006
0.002070,	10000.002307,	0.000003
0.006210,	10000.002338,	0.000003
0.010351,	10000.002377,	0.000003
0.014491,	10000.002419,	0.000003
0.018631,	10000.002463,	0.000003
0.022771,	10000.002510,	0.000003
0.026911,	10000.002557,	0.000003
0.031052,	10000.002607,	0.000003
0.035192,	10000.002658,	0.000003
0.039332,	10000.002709,	0.000003
0.043472,	10000.002762,	0.000003
0.047612,	10000.002815,	0.000003
0.051753,	10000.002869,	0.000003
0.055893,	10000.002924,	0.000003
0.060033,	10000.002979,	0.000004
0.064173,	10000.003034,	0.000004
0.068313,	10000.003090,	0.000004
0.072454,	10000.003145,	0.000004
0.076594,	10000.003201,	0.000004
0.080734,	10000.003257,	0.000004
0.084874,	10000.003313,	0.000004
0.089014,	10000.003369,	0.000004
0.093155,	10000.003425,	0.000004
0.097295,	10000.003481,	0.000004
0.101435,	10000.003536,	0.000004
0.105575,	10000.003591,	0.000004
0.109715,	10000.003646,	0.000004
0.113856,	10000.003700,	0.000004
0.117996,	10000.003754,	0.000004
0.122136,	10000.003808,	0.000005
0.126276,	10000.003861,	0.000005
0.130416,	10000.003913,	0.000005
0.134557,	10000.003965,	0.000005
0.138697,	10000.004016,	0.000005
0.142837,	10000.004067,	0.000005
0.146977,	10000.004117,	0.000005
0.151117,	10000.004166,	0.000005
0.155257,	10000.004214,	0.000005
0.159398,	10000.004261,	0.000005
0.163538,	10000.004308,	0.000005
0.167678,	10000.004353,	0.000005
0.171818,	10000.004398,	0.000005
0.175959,	10000.004442,	0.000005
0.180099,	10000.004484,	0.000005
0.184239,	10000.004526,	0.000005
0.188379,	10000.004566,	0.000005
0.192519,	10000.004606,	0.000005
0.196659,	10000.004644,	0.000005
0.200800,	10000.004681,	0.000006
0.204940,	10000.004716,	0.000006
0.209080,	10000.004751,	0.000006
0.213220,	10000.004784,	0.000006
0.217361,	10000.004815,	0.000006
0.221501,	10000.004845,	0.000006
0.225641,	10000.004874,	0.000006
0.229781,	10000.004902,	0.000006
0.233921,	10000.004929,	0.000006
0.238061,	10000.004955,	0.000006
0.242202,	10000.004979,	0.000006
0.246342,	10000.005003,	0.000006
0.250482,	10000.005026,	0.000006
0.254622,	10000.005049,	0.000006
0.258763,	10000.005070,	0.000006
0.262903,	10000.005088,	0.000006
0.267043,	10000.005107,	0.000006
0.271183,	10000.005126,	0.000006
0.275323,	10000.005145,	0.000006
0.279463,	10000.005162,	0.000006
0.283604,	10000.005178,	0.000006
0.287744,	10000.005193,	0.000006
0.291884,	10000.005205,	0.000006
0.296024,	10000.005219,	0.000006
0.300165,	10000.005232,	0.000006
0.304305,	10000.005245,	0.000006
0.308445,	10000.005257,	0.000006
0.312585,	10000.005269,	0.000006
0.316725,	10000.005279,	0.000006
0.320866,	10000.005288,	0.000006
0.325006,	10000.005296,	0.000006
0.329146,	10000.005304,	0.000006
0.333286,	10000.005312,	0.000006
0.337426,	10000.005320,	0.000006
0.341567,	10000.005327,	0.000006
0.345707,	10000.005334,	0.000006
0.349847,	10000.005340,	0.000006
0.353987,	10000.005346,	0.000006
0.358127,	10000.005350,	0.000006
0.362267,	10000.005354,	0.000006
0.366408,	10000.005358,	0.000006
0.370548,	10000.005361,	0.000006
0.374688,	10000.005365,	0.000006
0.378828,	10000.005368,	0.000006
0.382969,	10000.005371,	0.000006
0.387109,	10000.005373,	0.000006
0.391249,	10000.005373,	0.000006
0.395389,	10000.005374,	0.000006
0.399529,	10000.005376,	0.000006
0.403670,	10000.005377,	0.000006
0.407810,	10000.005378,	0.000006
0.411950,	10000.005379,	0.000006
0.002070,	10000.002966,	0.000003
0.006210,	10000.003006,	0.000003
0.010351,	10000.003056,	0.000003
0.014491,	10000.003110,	0.000003
0.018631,	10000.003167,	0.000003
0.022771,	10000.003227,	0.000003
0.026911,	10000.003288,	0.000003
0.031052,	10000.003352,	0.000003
0.035192,	10000.003417,	0.000003
0.039332,	10000.003483,	0.000003
0.043472,	10000.003551,	0.000003
0.047612,	10000.003619,	0.000003
0.051753,	10000.003689,	0.000003
0.055893,	10000.003759,	0.000003
0.060033,	10000.003830,	0.000004
0.064173,	10000.003901,	0.000004
0.068313,	10000.003972,	0.000004
0.072454,	10000.004044,	0.000004
0.076594,	10000.004116,	0.000004
0.080734,	10000.004188,	0.000004
0.084874,	10000.004260,	0.000004
0.089014,	10000.004332,	0.000004
0.093155,	10000.004404,	0.000004
0.097295,	10000.004475,	0.000004
0.101435,	10000.004546,	0.000004
0.105575,	10000.004617,	0.000004
0.109715,	10000.004687,	0.000004
0.113856,	10000.004757,	0.000004
0.117996,	10000.004827,	0.000004
0.122136,	10000.004896,	0.000005
0.126276,	10000.004964,	0.000005
0.130416,	10000.005031,	0.000005
0.134557,	10000.005098,	0.000005
0.138697,	10000.005164,	0.000005
0.142837,	10000.005229,	0.000005
0.146977,	10000.005293,	0.000005
0.151117,	10000.005356,	0.000005
0.155257,	10000.005418,	0.000005
0.159398,	10000.005479,	0.000005
0.163538,	10000.005539,	0.000005
0.167678,	10000.005597,	0.000005
0.171818,	10000.005655,	0.000005
0.175959,	10000.005711,	0.000005
0.180099,	10000.005766,	0.000005
0.184239,	10000.005819,	0.000005
0.188379,	10000.005871,	0.000005
0.192519,	10000.005922,	0.000005
0.196659,	10000.005971,	0.000005
0.200800,	10000.006018,	0.000006
0.204940,	10000.006064,	0.000006
0.209080,	10000.006108,	0.000006
0.213220,	10000.006150,	0.000006
0.217361,	10000.006191,	0.000006
0.221501,	10000.006230,	0.000006
0.225641,	10000.006267,	0.000006
0.229781,	10000.006303,	0.000006
0.233921,	10000.006338,	0.000006
0.238061,	10000.006371,	0.000006
0.242202,	10000.006402,	0.000006
0.246342,	10000.006432,	0.000006
0.250482,	10000.006463,	0.000006
0.254622,	10000.006492,	0.000006
0.258763,	10000.006518,	0.000006
0.262903,	10000.006542,	0.000006
0.267043,	10000.006567,	0.000006
0.271183,	10000.006591,	0.000006
0.275323,	10000.006614,	0.000006
0.279463,	10000.006637,	0.000006
0.283604,	10000.006658,	0.000006
0.287744,	10000.006676,	0.000006
0.291884,	10000.006693,	0.000006
0.296024,	10000.006710,	0.000006
0.300165,	10000.006727,	0.000006
0.304305,	10000.006744,	0.000006
0.308445,	10000.006759,	0.000006
0.312585,	10000.006774,	0.000006
0.316725,	10000.006787,	0.000006
0.320866,	10000.006799,	0.000006
0.325006,	10000.006809,	0.000006
0.329146,	10000.006819,	0.000006
0.333286,	10000.006830,	0.000006
0.337426,	10000.006840,	0.000006
0.341567,	10000.006849,	0.000006
0.345707,	10000.006858,	0.000006
0.349847,	10000.006866,	0.000006
0.353987,	10000.006873,	0.000006
0.358127,	10000.006879,	0.000006
0.362267,	10000.006884,	0.000006
0.366408,	10000.006888,	0.000006
0.370548,	10000.006893,	0.000006
0.374688,	10000.006898,	0.000006
0.378828,	10000.006902,	0.000006
0.382969,	10000.006905,	0.000006
0.387109,	10000.006908,	0.000006
0.391249,	10000.006909,	0.000006
0.395389,	10000.006910,	0.000006
0.399529,	10000.006912,	0.000006
0.403670,	10000.006913,	0.000006
0.407810,	10000.006914,	0.000006
0.411950,	10000.006915,	0.000006
0.002070,	10000.003625,	0.000003
0.006210,	10000.003674,	0.000003
0.010351,	10000.003735,	0.000003
0.014491,	10000.003801,	0.000003
0.018631,	10000.003871,	0.000003
0.022771,	10000.003944,	0.000003
0.026911,	10000.004019,	0.000003
0.031052,	10000.004096,	0.000003
0.035192,	10000.004176,	0.000003
0.039332,	10000.004257,	0.000003
0.043472,	10000.004340,	0.000003
0.047612,	10000.004424,	0.000003
0.051753,	10000.004509,	0.000003
0.055893,	10000.004594,	0.000003
0.060033,	10000.004681,	0.000004
0.064173,	10000.004768,	0.000004
0.068313,	10000.004855,	0.000004
0.072454,	10000.004943,	0.000004
0.076594,	10000.005031,	0.000004
0.080734,	10000.005119,	0.000004
0.084874,	10000.005207,	0.000004
0.089014,	10000.005294,	0.000004
0.093155,	10000.005382,	0.000004
0.097295,	10000.005470,	0.000004
0.101435,	10000.005557,	0.000004
0.105575,	10000.005643,	0.000004
0.109715,	10000.005729,	0.000004
0.113856,	10000.005815,	0.000004
0.117996,	10000.005899,	0.000004
0.122136,	10000.005984,	0.000005
0.126276,	10000.006067,	0.000005
0.130416,	10000.006149,	0.000005
0.134557,	10000.006231,	0.000005
0.138697,	10000.006311,	0.000005
0.142837,	10000.006390,	0.000005
0.146977,	10000.006469,	0.000005
0.151117,	10000.006546,	0.000005
0.155257,	10000.006622,	0.000005
0.159398,	10000.006696,	0.000005
0.163538,	10000.006769,	0.000005
0.167678,	10000.006841,	0.000005
0.171818,	10000.006911,	0.000005
0.175959,	10000.006980,	0.000005
0.180099,	10000.007047,	0.000005
0.184239,	10000.007112,	0.000005
0.188379,	10000.007176,	0.000005
0.192519,	10000.007238,	0.000005
0.196659,	10000.007297,	0.000005
0.200800,	10000.007355,	0.000006
0.204940,	10000.007411,	0.000006
0.209080,	10000.007465,	0.000006
0.213220,	10000.007517,	0.000006
0.217361,	10000.007566,	0.000006
0.221501,	10000.007614,	0.000006
0.225641,	10000.007660,	0.000006
0.229781,	10000.007704,	0.000006
0.233921,	10000.007746,	0.000006
0.238061,	10000.007787,	0.000006
0.242202,	10000.007825,	0.000006
0.246342,	10000.007862,	0.000006
0.250482,	10000.007899,	0.000006
0.254622,	10000.007934,	0.000006
0.258763,	10000.007967,	0.000006
0.262903,	10000.007996,	0.000006
0.267043,	10000.008026,	0.000006
0.271183,	10000.008056,	0.000006
0.275323,	10000.008084,	0.000006
0.279463,	10000.008112,	0.000006
0.283604,	10000.008138,	0.000006
0.287744,	10000.008160,	0.000006
0.291884,	10000.008180,	0.000006
0.296024,	10000.008201,	0.000006
0.300165,	10000.008222,	0.000006
0.304305,	10000.008242,	0.000006
0.308445,	10000.008261,	0.000006
0.312585,	10000.008279,	0.000006
0.316725,	10000.008296,	0.000006
0.320866,	10000.008310,	0.000006
0.325006,	10000.008322,	0.000006
0.329146,	10000.008334,	0.000006
0.333286,	10000.008347,	0.000006
0.337426,	10000.008360,	0.000006
0.341567,	10000.008371,	0.000006
0.345707,	10000.008382,	0.000006
0.349847,	10000.008392,	0.000006
0.353987,	10000.008401,	0.000006
0.358127,	10000.008408,	0.000006
0.362267,	10000.008413,	0.000006
0.366408,	10000.008419,	0.000006
0.370548,	10000.008425,	0.000006
0.374688,	10000.008430,	0.000006
0.378828,	10000.008435,	0.000006
0.382969,	10000.008440,	0.000006
0.387109,	10000.008443,	0.000006
0.391249,	10000.008444,	0.000006
0.395389,	10000.008445,	0.000006
0.399529,	10000.008448,	0.000006
0.403670,	10000.008450,	0.000006
0.407810,	10000.008451,	0.000006
0.411950,	10000.008452,	0.000006
0.002070,	10000.004284,	0.000003
0.006210,	10000.004342,	0.000003
0.010351,	10000.004415,	0.000003
0.014491,	10000.004492,	0.000003
0.018631,	10000.004575,	0.000003
0.022771,	10000.004661,	0.000003
0.026911,	10000.004750,	0.000003
0.031052,	10000.004841,	0.000003
0.035192,	10000.004935,	0.000003
0.039332,	10000.005031,	0.000003
0.043472,	10000.005129,	0.000003
0.047612,	10000.005228,	0.000003
0.051753,	10000.005328,	0.000003
0.055893,	10000.005430,	0.000003
0.060033,	10000.005532,	0.000004
0.064173,	10000.005634,	0.000004
0.068313,	10000.005738,	0.000004
0.072454,	10000.005841,	0.000004
0.076594,	10000.005945,	0.000004
0.080734,	10000.006049,	0.000004
0.084874,	10000.006153,	0.000004
0.089014,	10000.006257,	0.000004
0.093155,	10000.006361,	0.000004
0.097295,	10000.006464,	0.000004
0.101435,	10000.006567,	0.000004
0.105575,	10000.006669,	0.000004
0.109715,	10000.006771,	0.000004
0.113856,	10000.006872,	0.000004
0.117996,	10000.006972,	0.000004
0.122136,	10000.007072,	0.000005
0.126276,	10000.007170,	0.000005
0.130416,	10000.007267,	0.000005
0.134557,	10000.007363,	0.000005
0.138697,	10000.007458,	0.000005
0.142837,	10000.007552,	0.000005
0.146977,	10000.007645,	0.000005
0.151117,	10000.007736,	0.000005
0.155257,	10000.007826,	0.000005
0.159398,	10000.007914,	0.000005
0.163538,	10000.008000,	0.000005
0.167678,	10000.008085,	0.000005
0.171818,	10000.008168,	0.000005
0.175959,	10000.008249,	0.000005
0.180099,	10000.008328,	0.000005
0.184239,	10000.008405,	0.000005
0.188379,	10000.008480,	0.000005
0.192519,	10000.008553,	0.000005
0.196659,	10000.008624,	0.000005
0.200800,	10000.008693,	0.000006
0.204940,	10000.008759,	0.000006
0.209080,	10000.008823,	0.000006
0.213220,	10000.008884,	0.000006
0.217361,	10000.008942,	0.000006
0.221501,	10000.008998,	0.000006
0.225641,	10000.009053,	0.000006
0.229781,	10000.009104,	0.000006
0.233921,	10000.009154,	0.000006
0.238061,	10000.009203,	0.000006
0.242202,	10000.009247,	0.000006
0.246342,	10000.009291,	0.000006
0.250482,	10000.009335,	0.000006
0.254622,	10000.009377,	0.000006
0.258763,	10000.009415,	0.000006
0.262903,	10000.009450,	0.000006
0.267043,	10000.009485,	0.000006
0.271183,	10000.009520,	0.000006
0.275323,	10000.009554,	0.000006
0.279463,	10000.009587,	0.000006
0.283604,	10000.009617,	0.000006
0.287744,	10000.009644,	0.000006
0.291884,	10000.009667,	0.000006
0.296024,	10000.009692,	0.000006
0.300165,	10000.009717,	0.000006
0.304305,	10000.009741,	0.000006
0.308445,	10000.009764,	0.000006
0.312585,	10000.009785,	0.000006
0.316725,	10000.009804,	0.000006
0.320866,	10000.009820,	0.000006
0.325006,	10000.009835,	0.000006
0.329146,	10000.009850,	0.000006
0.333286,	10000.009865,	0.000006
0.337426,	10000.009880,	0.000006
0.341567,	10000.009893,	0.000006
0.345707,	10000.009906,	0.000006
0.349847,	10000.009918,	0.000006
0.353987,	10000.009928,	0.000006
0.358127,	10000.009936,	0.000006
0.362267,	10000.009943,	0.000006
0.366408,	10000.009950,	0.000006
0.370548,	10000.009957,	0.000006
0.374688,	10000.009963,	0.000006
0.378828,	10000.009969,	0.000006
0.382969,	10000.009974,	0.000006
0.387109,	10000.009978,	0.000006
0.391249,	10000.009979,	0.000006
0.395389,	10000.009981,	0.000006
0.399529,	10000.009984,	0.000006
0.403670,	10000.009986,	0.000006
0.407810,	10000.009988,	0.000006
0.411950,	10000.009989,	0.000006
0.002070,	10000.004943,	0.000003
0.006210,	10000.005010,	0.000003
0.010351,	10000.005094,	0.000003
0.014491,	10000.005183,	0.000003
0.018631,	10000.005278,	0.000003
0.022771,	10000.005378,	0.000003
0.026911,	10000.005480,	0.000003
0.031052,	10000.005586,	0.000003
0.035192,	10000.005695,	0.000003
0.039332,	10000.005805,	0.000003
0.043472,	10000.005918,	0.000003
0.047612,	10000.006032,	0.000003
0.051753,	10000.006148,	0.000003
0.055893,	10000.006265,	0.000003
0.060033,	10000.006383,	0.000004
0.064173,	10000.006501,	0.000004
0.068313,	10000.006620,	0.000004
0.072454,	10000.006740,	0.000004
0.076594,	10000.006860,	0.000004
0.080734,	10000.006980,	0.000004
0.084874,	10000.007100,	0.000004
0.089014,	10000.007220,	0.000004
0.093155,	10000.007339,	0.000004
0.097295,	10000.007458,	0.000004
0.101435,	10000.007577,	0.000004
0.105575,	10000.007695,	0.000004
0.109715,	10000.007812,	0.000004
0.113856,	10000.007929,	0.000004
0.117996,	10000.008045,	0.000004
0.122136,	10000.008159,	0.000005
0.126276,	10000.008273,	0.000005
0.130416,	10000.008385,	0.000005
0.134557,	10000.008496,	0.000005
0.138697,	10000.008606,	0.000005
0.142837,	10000.008714,	0.000005
0.146977,	10000.008821,	0.000005
0.151117,	10000.008926,	0.000005
0.155257,	10000.009029,	0.000005
0.159398,	10000.009131,	0.000005
0.163538,	10000.009231,	0.000005
0.167678,	10000.009329,	0.000005
0.171818,	10000.009424,	0.000005
0.175959,	10000.009518,	0.000005
0.180099,	10000.009609,	0.000005
0.184239,	10000.009699,	0.000005
0.188379,	10000.009785,	0.000005
0.192519,	10000.009869,	0.000005
0.196659,	10000.009951,	0.000005
0.200800,	10000.010030,	0.000006
0.204940,	10000.010106,	0.000006
0.209080,	10000.010180,	0.000006
0.213220,	10000.010250,	0.000006
0.217361,	10000.010318,	0.000006
0.221501,	10000.010383,	0.000006
0.225641,	10000.010445,	0.000006
0.229781,	10000.010505,	0.000006
0.233921,	10000.010563,	0.000006
0.238061,	10000.010618,	0.000006
0.242202,	10000.010670,	0.000006
0.246342,	10000.010721,	0.000006
0.250482,	10000.010771,	0.000006
0.254622,	10000.010820,	0.000006
0.258763,	10000.010864,	0.000006
0.262903,	10000.010904,	0.000006
0.267043,	10000.010944,	0.000006
0.271183,	10000.010985,	0.000006
0.275323,	10000.011024,	0.000006
0.279463,	10000.011061,	0.000006
0.283604,	10000.011097,	0.000006
0.287744,	10000.011127,	0.000006
0.291884,	10000.011154,	0.000006
0.296024,	10000.011183,	0.000006
0.300165,	10000.011212,	0.000006
0.304305,	10000.011240,	0.000006
0.308445,	10000.011266,	0.000006
0.312585,	10000.011290,	0.000006
0.316725,	10000.011312,	0.000006
0.320866,	10000.011331,	0.000006
0.325006,	10000.011348,	0.000006
0.329146,	10000.011365,	0.000006
0.333286,	10000.011383,	0.000006
0.337426,	10000.011400,	0.000006
0.341567,	10000.011416,	0.000006
0.345707,	10000.011430,	0.000006
0.349847,	10000.011443,	0.000006
0.353987,	10000.011455,	0.000006
0.358127,	10000.011465,	0.000006
0.362267,	10000.011473,	0.000006
0.366408,	10000.011480,	0.000006
0.370548,	10000.011489,	0.000006
0.374688,	10000.011496,	0.000006
0.378828,	10000.011503,	0.000006
0.382969,	10000.011509,	0.000006
0.387109,	10000.011513,	0.000006
0.391249,	10000.011515,	0.000006
0.395389,	10000.011517,	0.000006
0.399529,	10000.011520,	0.000006
0.403670,	10000.011522,	0.000006
0.407810,	10000.011524,	0.000006
0.411950,	10000.011526,	0.000006
0.002070,	10000.005602,	0.000003
0.006210,	10000.005678,	0.000003
0.010351,	10000.005773,	0.000003
0.014491,	10000.005874,	0.000003
0.018631,	10000.005982,	0.000003
0.022771,	10000.006095,	0.000003
0.026911,	10000.006211,	0.000003
0.031052,	10000.006331,	0.000003
0.035192,	10000.006454,	0.000003
0.039332,	10000.006579,	0.000003
0.043472,	10000.006707,	0.000003
0.047612,	10000.006836,	0.000003
0.051753,	10000.006968,	0.000003
0.055893,	10000.007100,	0.000003
0.060033,	10000.007234,	0.000004
0.064173,	10000.007368,	0.000004
0.068313,	10000.007503,	0.000004
0.072454,	10000.007639,	0.000004
0.076594,	10000.007775,	0.000004
0.080734,	10000.007911,	0.000004
0.084874,	10000.008047,	0.000004
0.089014,	10000.008182,	0.000004
0.093155,	10000.008318,	0.000004
0.097295,	10000.008453,	0.000004
0.101435,	10000.008587,	0.000004
0.105575,	10000.008721,	0.000004
0.109715,	10000.008854,	0.000004
0.113856,	10000.008986,	0.000004
0.117996,	10000.009117,	0.000004
0.122136,	10000.009247,	0.000005
0.126276,	10000.009376,	0.000005
0.130416,	10000.009503,	0.000005
0.134557,	10000.009629,	0.000005
0.138697,	10000.009753,	0.000005
0.142837,	10000.009876,	0.000005
0.146977,	10000.009997,	0.000005
0.151117,	10000.010116,	0.000005
0.155257,	10000.010233,	0.000005
0.159398,	10000.010349,	0.000005
0.163538,	10000.010462,	0.000005
0.167678,	10000.010573,	0.000005
0.171818,	10000.010681,	0.000005
0.175959,	10000.010787,	0.000005
0.180099,	10000.010891,	0.000005
0.184239,	10000.010992,	0.000005
0.188379,	10000.011090,	0.000005
0.192519,	10000.011185,	0.000005
0.196659,	10000.011278,	0.000005
0.200800,	10000.011367,	0.000006
0.204940,	10000.011454,	0.000006
0.209080,	10000.011537,	0.000006
0.213220,	10000.011617,	0.000006
0.217361,	10000.011693,	0.000006
0.221501,	10000.011767,	0.000006
0.225641,	10000.011838,	0.000006
0.229781,	10000.011906,	0.000006
0.233921,	10000.011971,	0.000006
0.238061,	10000.012034,	0.000006
0.242202,	10000.012093,	0.000006
0.246342,	10000.012150,	0.000006
0.250482,	10000.012207,	0.000006
0.254622,	10000.012262,	0.000006
0.258763,	10000.012312,	0.000006
0.262903,	10000.012358,	0.000006
0.267043,	10000.012404,	0.000006
0.271183,	10000.012449,	0.000006
0.275323,	10000.012494,	0.000006
0.279463,	10000.012536,	0.000006
0.283604,	10000.012576,	0.000006
0.287744,	10000.012611,	0.000006
0.291884,	10000.012642,	0.000006
0.296024,	10000.012674,	0.000006
0.300165,	10000.012707,	0.000006
0.304305,	10000.012738,	0.000006
0.308445,	10000.012768,	0.000006
0.312585,	10000.012795,	0.000006
0.316725,	10000.012821,	0.000006
0.320866,	10000.012842,	0.000006
0.325006,	10000.012861,	0.000006
0.329146,	10000.012880,	0.000006
0.333286,	10000.012901,	0.000006
0.337426,	10000.012920,	0.000006
0.341567,	10000.012938,	0.000006
0.345707,	10000.012954,	0.000006
0.349847,	10000.012969,	0.000006
0.353987,	10000.012983,	0.000006
0.358127,	10000.012993,	0.000006
0.362267,	10000.013002,	0.000006
0.366408,	10000.013011,	0.000006
0.370548,	10000.013020,	0.000006
0.374688,	10000.013029,	0.000006
0.378828,	10000.013036,	0.000006
0.382969,	10000.013043,	0.000006
0.387109,	10000.013048,	0.000006
0.391249,	10000.013050,	0.000006
0.395389,	10000.013052,	0.000006
0.399529,	10000.013056,	0.000006
0.403670,	10000.013058,	0.000006
0.407810,	10000.013061,	0.000006
0.411950,	10000.013062,	0.000006
0.002070,	10000.006261,	0.000003
0.006210,	10000.006346,	0.000003
0.010351,	10000.006452,	0.000003
0.014491,	10000.006566,	0.000003
0.018631,	10000.006686,	0.000003
0.022771,	10000.006812,	0.000003