TITLE = "MeshVolumeStats"
VARIABLES = "X", "Y", "VOL"
ZONE I=200, J=74, DATAPACKING=POINT
0.015514,	0.006768,	0.000420
0.046542,	0.006793,	0.000422
0.077570,	0.006821,	0.000423
0.108598,	0.006850,	0.000425
0.139627,	0.006879,	0.000427
0.170655,	0.006909,	0.000429
0.201683,	0.006939,	0.000431
0.232711,	0.006969,	0.000432
0.263739,	0.007000,	0.000434
0.294767,	0.007031,	0.000436
0.325795,	0.007062,	0.000438
0.356823,	0.007094,	0.000440
0.387852,	0.007126,	0.000442
0.418880,	0.007158,	0.000444
0.449908,	0.007191,	0.000446
0.480936,	0.007224,	0.000448
0.511964,	0.007257,	0.000450
0.542992,	0.007291,	0.000452
0.574020,	0.007324,	0.000455
0.605048,	0.007358,	0.000457
0.636077,	0.007392,	0.000459
0.667105,	0.007427,	0.000461
0.698133,	0.007461,	0.000463
0.729161,	0.007496,	0.000465
0.760189,	0.007531,	0.000467
0.791217,	0.007566,	0.000470
0.822245,	0.007602,	0.000472
0.853273,	0.007637,	0.000474
0.884302,	0.007673,	0.000476
0.915330,	0.007709,	0.000478
0.946358,	0.007745,	0.000481
0.977386,	0.007781,	0.000483
1.008414,	0.007818,	0.000485
1.039442,	0.007854,	0.000487
1.070470,	0.007891,	0.000490
1.101498,	0.007928,	0.000492
1.132527,	0.007965,	0.000494
1.163555,	0.008002,	0.000497
1.194583,	0.008039,	0.000499
1.225611,	0.008076,	0.000501
1.256639,	0.008113,	0.000503
1.287667,	0.008151,	0.000506
1.318695,	0.008188,	0.000508
1.349723,	0.008226,	0.000510
1.380752,	0.008264,	0.000513
1.411780,	0.008301,	0.000515
1.442808,	0.008339,	0.000517
1.473836,	0.008377,	0.000520
1.504864,	0.008415,	0.000522
1.535892,	0.008453,	0.000525
1.566920,	0.008492,	0.000527
1.597948,	0.008530,	0.000529
1.628977,	0.008569,	0.000532
1.660005,	0.008607,	0.000534
1.691033,	0.008646,	0.000537
1.722061,	0.008684,	0.000539
1.753089,	0.008723,	0.000541
1.784117,	0.008761,	0.000544
1.815145,	0.008800,	0.000546
1.846173,	0.008838,	0.000548
1.877202,	0.008877,	0.000551
1.908230,	0.008915,	0.000553
1.939258,	0.008954,	0.000556
1.970286,	0.008993,	0.000558
2.001314,	0.009031,	0.000560
2.032342,	0.009070,	0.000563
2.063370,	0.009109,	0.000565
2.094398,	0.009148,	0.000568
2.125427,	0.009186,	0.000570
2.156455,	0.009225,	0.000572
2.187483,	0.009264,	0.000575
2.218511,	0.009303,	0.000577
2.249539,	0.009342,	0.000580
2.280567,	0.009381,	0.000582
2.311595,	0.009420,	0.000585
2.342623,	0.009458,	0.000587
2.373652,	0.009497,	0.000589
2.404680,	0.009536,	0.000592
2.435708,	0.009574,	0.000594
2.466736,	0.009613,	0.000597
2.497764,	0.009651,	0.000599
2.528792,	0.009690,	0.000601
2.559820,	0.009728,	0.000604
2.590848,	0.009767,	0.000606
2.621877,	0.009805,	0.000608
2.652905,	0.009844,	0.000611
2.683933,	0.009882,	0.000613
2.714961,	0.009921,	0.000616
2.745989,	0.009959,	0.000618
2.777017,	0.009998,	0.000620
2.808045,	0.010036,	0.000623
2.839073,	0.010075,	0.000625
2.870102,	0.010113,	0.000628
2.901130,	0.010151,	0.000630
2.932158,	0.010189,	0.000632
2.963186,	0.010227,	0.000635
2.994214,	0.010265,	0.000637
3.025242,	0.010302,	0.000639
3.056270,	0.010340,	0.000642
3.087298,	0.010378,	0.000644
3.118327,	0.010415,	0.000646
3.149355,	0.010453,	0.000649
3.180383,	0.010490,	0.000651
3.211411,	0.010528,	0.000653
3.242439,	0.010565,	0.000656
3.273467,	0.010603,	0.000658
3.304495,	0.010640,	0.000660
3.335523,	0.010677,	0.000663
3.366551,	0.010714,	0.000665
3.397580,	0.010752,	0.000667
3.428608,	0.010789,	0.000669
3.459636,	0.010825,	0.000672
3.490664,	0.010862,	0.000674
3.521692,	0.010899,	0.000676
3.552720,	0.010935,	0.000679
3.583748,	0.010971,	0.000681
3.614776,	0.011008,	0.000683
3.645805,	0.011044,	0.000685
3.676833,	0.011080,	0.000688
3.707861,	0.011116,	0.000690
3.738889,	0.011152,	0.000692
3.769917,	0.011187,	0.000694
3.800945,	0.011223,	0.000696
3.831973,	0.011258,	0.000699
3.863001,	0.011294,	0.000701
3.894030,	0.011330,	0.000703
3.925058,	0.011365,	0.000705
3.956086,	0.011400,	0.000707
3.987114,	0.011435,	0.000710
4.018142,	0.011470,	0.000712
4.049170,	0.011505,	0.000714
4.080198,	0.011540,	0.000716
4.111226,	0.011574,	0.000718
4.142255,	0.011608,	0.000720
4.173283,	0.011642,	0.000722
4.204311,	0.011677,	0.000725
4.235339,	0.011710,	0.000727
4.266367,	0.011744,	0.000729
4.297395,	0.011778,	0.000731
4.328423,	0.011811,	0.000733
4.359451,	0.011845,	0.000735
4.390480,	0.011878,	0.000737
4.421508,	0.011911,	0.000739
4.452536,	0.011944,	0.000741
4.483564,	0.011977,	0.000743
4.514592,	0.012010,	0.000745
4.545620,	0.012043,	0.000747
4.576648,	0.012075,	0.000749
4.607676,	0.012107,	0.000751
4.638705,	0.012140,	0.000753
4.669733,	0.012171,	0.000755
4.700761,	0.012203,	0.000757
4.731789,	0.012235,	0.000759
4.762817,	0.012266,	0.000761
4.793845,	0.012297,	0.000763
4.824873,	0.012328,	0.000765
4.855901,	0.012359,	0.000767
4.886930,	0.012390,	0.000769
4.917958,	0.012420,	0.000771
4.948986,	0.012451,	0.000773
4.980014,	0.012481,	0.000775
5.011042,	0.012511,	0.000776
5.042070,	0.012540,	0.000778
5.073098,	0.012570,	0.000780
5.104126,	0.012600,	0.000782
5.135155,	0.012629,	0.000784
5.166183,	0.012659,	0.000786
5.197211,	0.012688,	0.000787
5.228239,	0.012717,	0.000789
5.259267,	0.012745,	0.000791
5.290295,	0.012773,	0.000793
5.321323,	0.012802,	0.000794
5.352351,	0.012829,	0.000796
5.383380,	0.012857,	0.000798
5.414408,	0.012885,	0.000800
5.445436,	0.012912,	0.000801
5.476464,	0.012939,	0.000803
5.507492,	0.012966,	0.000805
5.538520,	0.012993,	0.000806
5.569548,	0.013019,	0.000808
5.600576,	0.013045,	0.000810
5.631605,	0.013071,	0.000811
5.662633,	0.013097,	0.000813
5.693661,	0.013123,	0.000814
5.724689,	0.013149,	0.000816
5.755717,	0.013174,	0.000818
5.786745,	0.013199,	0.000819
5.817773,	0.013224,	0.000821
5.848801,	0.013249,	0.000822
5.879830,	0.013273,	0.000824
5.910858,	0.013297,	0.000825
5.941886,	0.013321,	0.000827
5.972914,	0.013345,	0.000828
6.003942,	0.013368,	0.000830
6.034970,	0.013391,	0.000831
6.065998,	0.013414,	0.000832
6.097026,	0.013437,	0.000834
6.128055,	0.013459,	0.000835
6.159083,	0.013481,	0.000837
6.190111,	0.013503,	0.000838
0.015514,	0.020303,	0.000420
0.046542,	0.020378,	0.000422
0.077570,	0.020463,	0.000423
0.108598,	0.020550,	0.000425
0.139627,	0.020638,	0.000427
0.170655,	0.020726,	0.000429
0.201683,	0.020816,	0.000431
0.232711,	0.020907,	0.000432
0.263739,	0.020999,	0.000434
0.294767,	0.021092,	0.000436
0.325795,	0.021186,	0.000438
0.356823,	0.021281,	0.000440
0.387852,	0.021377,	0.000442
0.418880,	0.021474,	0.000444
0.449908,	0.021572,	0.000446
0.480936,	0.021672,	0.000448
0.511964,	0.021772,	0.000450
0.542992,	0.021872,	0.000452
0.574020,	0.021973,	0.000455
0.605048,	0.022075,	0.000457
0.636077,	0.022177,	0.000459
0.667105,	0.022280,	0.000461
0.698133,	0.022384,	0.000463
0.729161,	0.022488,	0.000465
0.760189,	0.022593,	0.000467
0.791217,	0.022699,	0.000470
0.822245,	0.022805,	0.000472
0.853273,	0.022911,	0.000474
0.884302,	0.023018,	0.000476
0.915330,	0.023126,	0.000478
0.946358,	0.023234,	0.000481
0.977386,	0.023343,	0.000483
1.008414,	0.023453,	0.000485
1.039442,	0.023563,	0.000487
1.070470,	0.023674,	0.000490
1.101498,	0.023784,	0.000492
1.132527,	0.023895,	0.000494
1.163555,	0.024006,	0.000497
1.194583,	0.024117,	0.000499
1.225611,	0.024228,	0.000501
1.256639,	0.024340,	0.000503
1.287667,	0.024452,	0.000506
1.318695,	0.024565,	0.000508
1.349723,	0.024678,	0.000510
1.380752,	0.024791,	0.000513
1.411780,	0.024904,	0.000515
1.442808,	0.025017,	0.000517
1.473836,	0.025131,	0.000520
1.504864,	0.025246,	0.000522
1.535892,	0.025360,	0.000525
1.566920,	0.025476,	0.000527
1.597948,	0.025591,	0.000529
1.628977,	0.025706,	0.000532
1.660005,	0.025822,	0.000534
1.691033,	0.025937,	0.000537
1.722061,	0.026052,	0.000539
1.753089,	0.026168,	0.000541
1.784117,	0.026283,	0.000544
1.815145,	0.026399,	0.000546
1.846173,	0.026514,	0.000548
1.877202,	0.026630,	0.000551
1.908230,	0.026746,	0.000553
1.939258,	0.026862,	0.000556
1.970286,	0.026978,	0.000558
2.001314,	0.027094,	0.000560
2.032342,	0.027210,	0.000563
2.063370,	0.027326,	0.000565
2.094398,	0.027443,	0.000568
2.125427,	0.027559,	0.000570
2.156455,	0.027676,	0.000572
2.187483,	0.027793,	0.000575
2.218511,	0.027910,	0.000577
2.249539,	0.028027,	0.000580
2.280567,	0.028143,	0.000582
2.311595,	0.028259,	0.000585
2.342623,	0.028375,	0.000587
2.373652,	0.028491,	0.000589
2.404680,	0.028607,	0.000592
2.435708,	0.028722,	0.000594
2.466736,	0.028838,	0.000597
2.497764,	0.028954,	0.000599
2.528792,	0.029069,	0.000601
2.559820,	0.029185,	0.000604
2.590848,	0.029300,	0.000606
2.621877,	0.029416,	0.000608
2.652905,	0.029531,	0.000611
2.683933,	0.029647,	0.000613
2.714961,	0.029763,	0.000616
2.745989,	0.029878,	0.000618
2.777017,	0.029994,	0.000620
2.808045,	0.030109,	0.000623
2.839073,	0.030224,	0.000625
2.870102,	0.030338,	0.000628
2.901130,	0.030452,	0.000630
2.932158,	0.030566,	0.000632
2.963186,	0.030680,	0.000635
2.994214,	0.030794,	0.000637
3.025242,	0.030907,	0.000639
3.056270,	0.031021,	0.000642
3.087298,	0.031134,	0.000644
3.118327,	0.031246,	0.000646
3.149355,	0.031359,	0.000649
3.180383,	0.031471,	0.000651
3.211411,	0.031583,	0.000653
3.242439,	0.031695,	0.000656
3.273467,	0.031808,	0.000658
3.304495,	0.031920,	0.000660
3.335523,	0.032032,	0.000663
3.366551,	0.032143,	0.000665
3.397580,	0.032255,	0.000667
3.428608,	0.032366,	0.000669
3.459636,	0.032476,	0.000672
3.490664,	0.032586,	0.000674
3.521692,	0.032696,	0.000676
3.552720,	0.032805,	0.000679
3.583748,	0.032914,	0.000681
3.614776,	0.033023,	0.000683
3.645805,	0.033131,	0.000685
3.676833,	0.033239,	0.000688
3.707861,	0.033347,	0.000690
3.738889,	0.033455,	0.000692
3.769917,	0.033562,	0.000694
3.800945,	0.033668,	0.000696
3.831973,	0.033775,	0.000699
3.863001,	0.033882,	0.000701
3.894030,	0.033989,	0.000703
3.925058,	0.034095,	0.000705
3.956086,	0.034200,	0.000707
3.987114,	0.034306,	0.000710
4.018142,	0.034411,	0.000712
4.049170,	0.034515,	0.000714
4.080198,	0.034619,	0.000716
4.111226,	0.034722,	0.000718
4.142255,	0.034825,	0.000720
4.173283,	0.034927,	0.000722
4.204311,	0.035030,	0.000725
4.235339,	0.035131,	0.000727
4.266367,	0.035233,	0.000729
4.297395,	0.035333,	0.000731
4.328423,	0.035434,	0.000733
4.359451,	0.035534,	0.000735
4.390480,	0.035634,	0.000737
4.421508,	0.035733,	0.000739
4.452536,	0.035832,	0.000741
4.483564,	0.035931,	0.000743
4.514592,	0.036030,	0.000745
4.545620,	0.036128,	0.000747
4.576648,	0.036225,	0.000749
4.607676,	0.036322,	0.000751
4.638705,	0.036419,	0.000753
4.669733,	0.036514,	0.000755
4.700761,	0.036609,	0.000757
4.731789,	0.036704,	0.000759
4.762817,	0.036798,	0.000761
4.793845,	0.036891,	0.000763
4.824873,	0.036984,	0.000765
4.855901,	0.037077,	0.000767
4.886930,	0.037169,	0.000769
4.917958,	0.037261,	0.000771
4.948986,	0.037352,	0.000773
4.980014,	0.037442,	0.000775
5.011042,	0.037532,	0.000776
5.042070,	0.037621,	0.000778
5.073098,	0.037711,	0.000780
5.104126,	0.037800,	0.000782
5.135155,	0.037888,	0.000784
5.166183,	0.037976,	0.000786
5.197211,	0.038063,	0.000787
5.228239,	0.038150,	0.000789
5.259267,	0.038236,	0.000791
5.290295,	0.038320,	0.000793
5.321323,	0.038405,	0.000794
5.352351,	0.038488,	0.000796
5.383380,	0.038571,	0.000798
5.414408,	0.038654,	0.000800
5.445436,	0.038736,	0.000801
5.476464,	0.038817,	0.000803
5.507492,	0.038898,	0.000805
5.538520,	0.038978,	0.000806
5.569548,	0.039057,	0.000808
5.600576,	0.039136,	0.000810
5.631605,	0.039214,	0.000811
5.662633,	0.039292,	0.000813
5.693661,	0.039369,	0.000814
5.724689,	0.039446,	0.000816
5.755717,	0.039522,	0.000818
5.786745,	0.039597,	0.000819
5.817773,	0.039672,	0.000821
5.848801,	0.039746,	0.000822
5.879830,	0.039819,	0.000824
5.910858,	0.039892,	0.000825
5.941886,	0.039963,	0.000827
5.972914,	0.040034,	0.000828
6.003942,	0.040104,	0.000830
6.034970,	0.040174,	0.000831
6.065998,	0.040242,	0.000832
6.097026,	0.040310,	0.000834
6.128055,	0.040377,	0.000835
6.159083,	0.040444,	0.000837
6.190111,	0.040510,	0.000838
0.015514,	0.033839,	0.000420
0.046542,	0.033964,	0.000422
0.077570,	0.034106,	0.000423
0.108598,	0.034250,	0.000425
0.139627,	0.034396,	0.000427
0.170655,	0.034544,	0.000429
0.201683,	0.034693,	0.000431
0.232711,	0.034844,	0.000432
0.263739,	0.034998,	0.000434
0.294767,	0.035153,	0.000436
0.325795,	0.035309,	0.000438
0.356823,	0.035468,	0.000440
0.387852,	0.035628,	0.000442
0.418880,	0.035790,	0.000444
0.449908,	0.035954,	0.000446
0.480936,	0.036119,	0.000448
0.511964,	0.036286,	0.000450
0.542992,	0.036454,	0.000452
0.574020,	0.036622,	0.000455
0.605048,	0.036792,	0.000457
0.636077,	0.036962,	0.000459
0.667105,	0.037134,	0.000461
0.698133,	0.037307,	0.000463
0.729161,	0.037481,	0.000465
0.760189,	0.037656,	0.000467
0.791217,	0.037831,	0.000470
0.822245,	0.038008,	0.000472
0.853273,	0.038185,	0.000474
0.884302,	0.038364,	0.000476
0.915330,	0.038543,	0.000478
0.946358,	0.038724,	0.000481
0.977386,	0.038906,	0.000483
1.008414,	0.039089,	0.000485
1.039442,	0.039272,	0.000487
1.070470,	0.039456,	0.000490
1.101498,	0.039640,	0.000492
1.132527,	0.039825,	0.000494
1.163555,	0.040009,	0.000497
1.194583,	0.040195,	0.000499
1.225611,	0.040380,	0.000501
1.256639,	0.040567,	0.000503
1.287667,	0.040754,	0.000506
1.318695,	0.040941,	0.000508
1.349723,	0.041129,	0.000510
1.380752,	0.041318,	0.000513
1.411780,	0.041506,	0.000515
1.442808,	0.041696,	0.000517
1.473836,	0.041885,	0.000520
1.504864,	0.042076,	0.000522
1.535892,	0.042267,	0.000525
1.566920,	0.042459,	0.000527
1.597948,	0.042651,	0.000529
1.628977,	0.042844,	0.000532
1.660005,	0.043036,	0.000534
1.691033,	0.043228,	0.000537
1.722061,	0.043421,	0.000539
1.753089,	0.043613,	0.000541
1.784117,	0.043805,	0.000544
1.815145,	0.043998,	0.000546
1.846173,	0.044191,	0.000548
1.877202,	0.044383,	0.000551
1.908230,	0.044576,	0.000553
1.939258,	0.044770,	0.000556
1.970286,	0.044963,	0.000558
2.001314,	0.045157,	0.000560
2.032342,	0.045350,	0.000563
2.063370,	0.045544,	0.000565
2.094398,	0.045738,	0.000568
2.125427,	0.045932,	0.000570
2.156455,	0.046127,	0.000572
2.187483,	0.046322,	0.000575
2.218511,	0.046517,	0.000577
2.249539,	0.046711,	0.000580
2.280567,	0.046905,	0.000582
2.311595,	0.047099,	0.000585
2.342623,	0.047292,	0.000587
2.373652,	0.047485,	0.000589
2.404680,	0.047678,	0.000592
2.435708,	0.047871,	0.000594
2.466736,	0.048063,	0.000597
2.497764,	0.048256,	0.000599
2.528792,	0.048449,	0.000601
2.559820,	0.048641,	0.000604
2.590848,	0.048834,	0.000606
2.621877,	0.049026,	0.000608
2.652905,	0.049219,	0.000611
2.683933,	0.049412,	0.000613
2.714961,	0.049605,	0.000616
2.745989,	0.049797,	0.000618
2.777017,	0.049990,	0.000620
2.808045,	0.050182,	0.000623
2.839073,	0.050373,	0.000625
2.870102,	0.050564,	0.000628
2.901130,	0.050754,	0.000630
2.932158,	0.050944,	0.000632
2.963186,	0.051133,	0.000635
2.994214,	0.051323,	0.000637
3.025242,	0.051512,	0.000639
3.056270,	0.051701,	0.000642
3.087298,	0.051890,	0.000644
3.118327,	0.052077,	0.000646
3.149355,	0.052265,	0.000649
3.180383,	0.052452,	0.000651
3.211411,	0.052639,	0.000653
3.242439,	0.052826,	0.000656
3.273467,	0.053013,	0.000658
3.304495,	0.053199,	0.000660
3.335523,	0.053386,	0.000663
3.366551,	0.053572,	0.000665
3.397580,	0.053758,	0.000667
3.428608,	0.053943,	0.000669
3.459636,	0.054127,	0.000672
3.490664,	0.054310,	0.000674
3.521692,	0.054493,	0.000676
3.552720,	0.054675,	0.000679
3.583748,	0.054856,	0.000681
3.614776,	0.055038,	0.000683
3.645805,	0.055218,	0.000685
3.676833,	0.055399,	0.000688
3.707861,	0.055578,	0.000690
3.738889,	0.055758,	0.000692
3.769917,	0.055936,	0.000694
3.800945,	0.056114,	0.000696
3.831973,	0.056292,	0.000699
3.863001,	0.056470,	0.000701
3.894030,	0.056648,	0.000703
3.925058,	0.056824,	0.000705
3.956086,	0.057001,	0.000707
3.987114,	0.057177,	0.000710
4.018142,	0.057351,	0.000712
4.049170,	0.057525,	0.000714
4.080198,	0.057698,	0.000716
4.111226,	0.057870,	0.000718
4.142255,	0.058041,	0.000720
4.173283,	0.058212,	0.000722
4.204311,	0.058383,	0.000725
4.235339,	0.058552,	0.000727
4.266367,	0.058721,	0.000729
4.297395,	0.058889,	0.000731
4.328423,	0.059056,	0.000733
4.359451,	0.059223,	0.000735
4.390480,	0.059390,	0.000737
4.421508,	0.059555,	0.000739
4.452536,	0.059721,	0.000741
4.483564,	0.059886,	0.000743
4.514592,	0.060050,	0.000745
4.545620,	0.060213,	0.000747
4.576648,	0.060376,	0.000749
4.607676,	0.060537,	0.000751
4.638705,	0.060698,	0.000753
4.669733,	0.060857,	0.000755
4.700761,	0.061015,	0.000757
4.731789,	0.061173,	0.000759
4.762817,	0.061330,	0.000761
4.793845,	0.061486,	0.000763
4.824873,	0.061641,	0.000765
4.855901,	0.061795,	0.000767
4.886930,	0.061948,	0.000769
4.917958,	0.062101,	0.000771
4.948986,	0.062253,	0.000773
4.980014,	0.062403,	0.000775
5.011042,	0.062553,	0.000776
5.042070,	0.062702,	0.000778
5.073098,	0.062851,	0.000780
5.104126,	0.063000,	0.000782
5.135155,	0.063147,	0.000784
5.166183,	0.063293,	0.000786
5.197211,	0.063439,	0.000787
5.228239,	0.063583,	0.000789
5.259267,	0.063726,	0.000791
5.290295,	0.063867,	0.000793
5.321323,	0.064008,	0.000794
5.352351,	0.064147,	0.000796
5.383380,	0.064286,	0.000798
5.414408,	0.064423,	0.000800
5.445436,	0.064560,	0.000801
5.476464,	0.064695,	0.000803
5.507492,	0.064830,	0.000805
5.538520,	0.064963,	0.000806
5.569548,	0.065096,	0.000808
5.600576,	0.065227,	0.000810
5.631605,	0.065357,	0.000811
5.662633,	0.065487,	0.000813
5.693661,	0.065615,	0.000814
5.724689,	0.065743,	0.000816
5.755717,	0.065870,	0.000818
5.786745,	0.065996,	0.000819
5.817773,	0.066120,	0.000821
5.848801,	0.066244,	0.000822
5.879830,	0.066366,	0.000824
5.910858,	0.066486,	0.000825
5.941886,	0.066605,	0.000827
5.972914,	0.066724,	0.000828
6.003942,	0.066840,	0.000830
6.034970,	0.066956,	0.000831
6.065998,	0.067070,	0.000832
6.097026,	0.067184,	0.000834
6.128055,	0.067296,	0.000835
6.159083,	0.067406,	0.000837
6.190111,	0.067516,	0.000838
0.015514,	0.047374,	0.000420
0.046542,	0.047549,	0.000422
0.077570,	0.047748,	0.000423
0.108598,	0.047950,	0.000425
0.139627,	0.048155,	0.000427
0.170655,	0.048362,	0.000429
0.201683,	0.048570,	0.000431
0.232711,	0.048782,	0.000432
0.263739,	0.048997,	0.000434
0.294767,	0.049214,	0.000436
0.325795,	0.049433,	0.000438
0.356823,	0.049655,	0.000440
0.387852,	0.049879,	0.000442
0.418880,	0.050106,	0.000444
0.449908,	0.050336,	0.000446
0.480936,	0.050567,	0.000448
0.511964,	0.050800,	0.000450
0.542992,	0.051035,	0.000452
0.574020,	0.051271,	0.000455
0.605048,	0.051508,	0.000457
0.636077,	0.051747,	0.000459
0.667105,	0.051987,	0.000461
0.698133,	0.052229,	0.000463
0.729161,	0.052473,	0.000465
0.760189,	0.052718,	0.000467
0.791217,	0.052964,	0.000470
0.822245,	0.053211,	0.000472
0.853273,	0.053459,	0.000474
0.884302,	0.053709,	0.000476
0.915330,	0.053960,	0.000478
0.946358,	0.054213,	0.000481
0.977386,	0.054468,	0.000483
1.008414,	0.054724,	0.000485
1.039442,	0.054981,	0.000487
1.070470,	0.055239,	0.000490
1.101498,	0.055497,	0.000492
1.132527,	0.055755,	0.000494
1.163555,	0.056013,	0.000497
1.194583,	0.056272,	0.000499
1.225611,	0.056533,	0.000501
1.256639,	0.056793,	0.000503
1.287667,	0.057055,	0.000506
1.318695,	0.057318,	0.000508
1.349723,	0.057581,	0.000510
1.380752,	0.057845,	0.000513
1.411780,	0.058109,	0.000515
1.442808,	0.058374,	0.000517
1.473836,	0.058640,	0.000520
1.504864,	0.058906,	0.000522
1.535892,	0.059174,	0.000525
1.566920,	0.059443,	0.000527
1.597948,	0.059712,	0.000529
1.628977,	0.059981,	0.000532
1.660005,	0.060250,	0.000534
1.691033,	0.060520,	0.000537
1.722061,	0.060789,	0.000539
1.753089,	0.061058,	0.000541
1.784117,	0.061327,	0.000544
1.815145,	0.061597,	0.000546
1.846173,	0.061867,	0.000548
1.877202,	0.062137,	0.000551
1.908230,	0.062407,	0.000553
1.939258,	0.062678,	0.000556
1.970286,	0.062948,	0.000558
2.001314,	0.063219,	0.000560
2.032342,	0.063490,	0.000563
2.063370,	0.063761,	0.000565
2.094398,	0.064033,	0.000568
2.125427,	0.064305,	0.000570
2.156455,	0.064578,	0.000572
2.187483,	0.064850,	0.000575
2.218511,	0.065123,	0.000577
2.249539,	0.065396,	0.000580
2.280567,	0.065667,	0.000582
2.311595,	0.065938,	0.000585
2.342623,	0.066209,	0.000587
2.373652,	0.066479,	0.000589
2.404680,	0.066749,	0.000592
2.435708,	0.067019,	0.000594
2.466736,	0.067289,	0.000597
2.497764,	0.067559,	0.000599
2.528792,	0.067828,	0.000601
2.559820,	0.068098,	0.000604
2.590848,	0.068367,	0.000606
2.621877,	0.068637,	0.000608
2.652905,	0.068907,	0.000611
2.683933,	0.069177,	0.000613
2.714961,	0.069447,	0.000616
2.745989,	0.069716,	0.000618
2.777017,	0.069986,	0.000620
2.808045,	0.070254,	0.000623
2.839073,	0.070522,	0.000625
2.870102,	0.070789,	0.000628
2.901130,	0.071055,	0.000630
2.932158,	0.071321,	0.000632
2.963186,	0.071587,	0.000635
2.994214,	0.071852,	0.000637
3.025242,	0.072117,	0.000639
3.056270,	0.072382,	0.000642
3.087298,	0.072645,	0.000644
3.118327,	0.072908,	0.000646
3.149355,	0.073171,	0.000649
3.180383,	0.073432,	0.000651
3.211411,	0.073694,	0.000653
3.242439,	0.073956,	0.000656
3.273467,	0.074218,	0.000658
3.304495,	0.074479,	0.000660
3.335523,	0.074741,	0.000663
3.366551,	0.075001,	0.000665
3.397580,	0.075261,	0.000667
3.428608,	0.075520,	0.000669
3.459636,	0.075778,	0.000672
3.490664,	0.076034,	0.000674
3.521692,	0.076290,	0.000676
3.552720,	0.076545,	0.000679
3.583748,	0.076799,	0.000681
3.614776,	0.077053,	0.000683
3.645805,	0.077306,	0.000685
3.676833,	0.077558,	0.000688
3.707861,	0.077810,	0.000690
3.738889,	0.078061,	0.000692
3.769917,	0.078311,	0.000694
3.800945,	0.078560,	0.000696
3.831973,	0.078809,	0.000699
3.863001,	0.079058,	0.000701
3.894030,	0.079307,	0.000703
3.925058,	0.079554,	0.000705
3.956086,	0.079801,	0.000707
3.987114,	0.080047,	0.000710
4.018142,	0.080292,	0.000712
4.049170,	0.080535,	0.000714
4.080198,	0.080777,	0.000716
4.111226,	0.081018,	0.000718
4.142255,	0.081258,	0.000720
4.173283,	0.081497,	0.000722
4.204311,	0.081736,	0.000725
4.235339,	0.081973,	0.000727
4.266367,	0.082210,	0.000729
4.297395,	0.082445,	0.000731
4.328423,	0.082679,	0.000733
4.359451,	0.082913,	0.000735
4.390480,	0.083145,	0.000737
4.421508,	0.083377,	0.000739
4.452536,	0.083609,	0.000741
4.483564,	0.083840,	0.000743
4.514592,	0.084070,	0.000745
4.545620,	0.084298,	0.000747
4.576648,	0.084526,	0.000749
4.607676,	0.084752,	0.000751
4.638705,	0.084977,	0.000753
4.669733,	0.085200,	0.000755
4.700761,	0.085422,	0.000757
4.731789,	0.085642,	0.000759
4.762817,	0.085862,	0.000761
4.793845,	0.086080,	0.000763
4.824873,	0.086297,	0.000765
4.855901,	0.086513,	0.000767
4.886930,	0.086728,	0.000769
4.917958,	0.086941,	0.000771
4.948986,	0.087154,	0.000773
4.980014,	0.087365,	0.000775
5.011042,	0.087574,	0.000776
5.042070,	0.087783,	0.000778
5.073098,	0.087992,	0.000780
5.104126,	0.088199,	0.000782
5.135155,	0.088406,	0.000784
5.166183,	0.088611,	0.000786
5.197211,	0.088814,	0.000787
5.228239,	0.089017,	0.000789
5.259267,	0.089216,	0.000791
5.290295,	0.089414,	0.000793
5.321323,	0.089611,	0.000794
5.352351,	0.089806,	0.000796
5.383380,	0.090000,	0.000798
5.414408,	0.090192,	0.000800
5.445436,	0.090384,	0.000801
5.476464,	0.090574,	0.000803
5.507492,	0.090762,	0.000805
5.538520,	0.090949,	0.000806
5.569548,	0.091134,	0.000808
5.600576,	0.091318,	0.000810
5.631605,	0.091500,	0.000811
5.662633,	0.091681,	0.000813
5.693661,	0.091861,	0.000814
5.724689,	0.092040,	0.000816
5.755717,	0.092218,	0.000818
5.786745,	0.092394,	0.000819
5.817773,	0.092569,	0.000821
5.848801,	0.092741,	0.000822
5.879830,	0.092912,	0.000824
5.910858,	0.093081,	0.000825
5.941886,	0.093248,	0.000827
5.972914,	0.093413,	0.000828
6.003942,	0.093577,	0.000830
6.034970,	0.093738,	0.000831
6.065998,	0.093899,	0.000832
6.097026,	0.094057,	0.000834
6.128055,	0.094214,	0.000835
6.159083,	0.094369,	0.000837
6.190111,	0.094522,	0.000838
0.015514,	0.060909,	0.000420
0.046542,	0.061135,	0.000422
0.077570,	0.061390,	0.000423
0.108598,	0.061650,	0.000425
0.139627,	0.061913,	0.000427
0.170655,	0.062179,	0.000429
0.201683,	0.062447,	0.000431
0.232711,	0.062720,	0.000432
0.263739,	0.062996,	0.000434
0.294767,	0.063275,	0.000436
0.325795,	0.063557,	0.000438
0.356823,	0.063842,	0.000440
0.387852,	0.064130,	0.000442
0.418880,	0.064422,	0.000444
0.449908,	0.064717,	0.000446
0.480936,	0.065015,	0.000448
0.511964,	0.065315,	0.000450
0.542992,	0.065616,	0.000452
0.574020,	0.065920,	0.000455
0.605048,	0.066225,	0.000457
0.636077,	0.066532,	0.000459
0.667105,	0.066841,	0.000461
0.698133,	0.067152,	0.000463
0.729161,	0.067465,	0.000465
0.760189,	0.067780,	0.000467
0.791217,	0.068096,	0.000470
0.822245,	0.068414,	0.000472
0.853273,	0.068734,	0.000474
0.884302,	0.069055,	0.000476
0.915330,	0.069378,	0.000478
0.946358,	0.069703,	0.000481
0.977386,	0.070030,	0.000483
1.008414,	0.070360,	0.000485
1.039442,	0.070690,	0.000487
1.070470,	0.071021,	0.000490
1.101498,	0.071353,	0.000492
1.132527,	0.071684,	0.000494
1.163555,	0.072017,	0.000497
1.194583,	0.072350,	0.000499
1.225611,	0.072685,	0.000501
1.256639,	0.073020,	0.000503
1.287667,	0.073357,	0.000506
1.318695,	0.073695,	0.000508
1.349723,	0.074033,	0.000510
1.380752,	0.074372,	0.000513
1.411780,	0.074711,	0.000515
1.442808,	0.075052,	0.000517
1.473836,	0.075394,	0.000520
1.504864,	0.075737,	0.000522
1.535892,	0.076081,	0.000525
1.566920,	0.076427,	0.000527
1.597948,	0.076772,	0.000529
1.628977,	0.077118,	0.000532
1.660005,	0.077465,	0.000534
1.691033,	0.077811,	0.000537
1.722061,	0.078157,	0.000539
1.753089,	0.078503,	0.000541
1.784117,	0.078850,	0.000544
1.815145,	0.079196,	0.000546
1.846173,	0.079543,	0.000548
1.877202,	0.079890,	0.000551
1.908230,	0.080238,	0.000553
1.939258,	0.080585,	0.000556
1.970286,	0.080934,	0.000558
2.001314,	0.081282,	0.000560
2.032342,	0.081630,	0.000563
2.063370,	0.081978,	0.000565
2.094398,	0.082328,	0.000568
2.125427,	0.082678,	0.000570
2.156455,	0.083029,	0.000572
2.187483,	0.083379,	0.000575
2.218511,	0.083730,	0.000577
2.249539,	0.084080,	0.000580
2.280567,	0.084429,	0.000582
2.311595,	0.084777,	0.000585
2.342623,	0.085125,	0.000587
2.373652,	0.085473,	0.000589
2.404680,	0.085820,	0.000592
2.435708,	0.086167,	0.000594
2.466736,	0.086514,	0.000597
2.497764,	0.086861,	0.000599
2.528792,	0.087208,	0.000601
2.559820,	0.087554,	0.000604
2.590848,	0.087901,	0.000606
2.621877,	0.088247,	0.000608
2.652905,	0.088594,	0.000611
2.683933,	0.088941,	0.000613
2.714961,	0.089288,	0.000616
2.745989,	0.089635,	0.000618
2.777017,	0.089981,	0.000620
2.808045,	0.090327,	0.000623
2.839073,	0.090671,	0.000625
2.870102,	0.091015,	0.000628
2.901130,	0.091357,	0.000630
2.932158,	0.091699,	0.000632
2.963186,	0.092040,	0.000635
2.994214,	0.092381,	0.000637
3.025242,	0.092722,	0.000639
3.056270,	0.093062,	0.000642
3.087298,	0.093401,	0.000644
3.118327,	0.093739,	0.000646
3.149355,	0.094076,	0.000649
3.180383,	0.094413,	0.000651
3.211411,	0.094749,	0.000653
3.242439,	0.095086,	0.000656
3.273467,	0.095423,	0.000658
3.304495,	0.095759,	0.000660
3.335523,	0.096095,	0.000663
3.366551,	0.096430,	0.000665
3.397580,	0.096764,	0.000667
3.428608,	0.097097,	0.000669
3.459636,	0.097428,	0.000672
3.490664,	0.097758,	0.000674
3.521692,	0.098087,	0.000676
3.552720,	0.098414,	0.000679
3.583748,	0.098742,	0.000681
3.614776,	0.099068,	0.000683
3.645805,	0.099393,	0.000685
3.676833,	0.099718,	0.000688
3.707861,	0.100041,	0.000690
3.738889,	0.100364,	0.000692
3.769917,	0.100685,	0.000694
3.800945,	0.101005,	0.000696
3.831973,	0.101326,	0.000699
3.863001,	0.101646,	0.000701
3.894030,	0.101966,	0.000703
3.925058,	0.102284,	0.000705
3.956086,	0.102601,	0.000707
3.987114,	0.102918,	0.000710
4.018142,	0.103232,	0.000712
4.049170,	0.103545,	0.000714
4.080198,	0.103856,	0.000716
4.111226,	0.104166,	0.000718
4.142255,	0.104474,	0.000720
4.173283,	0.104782,	0.000722
4.204311,	0.105089,	0.000725
4.235339,	0.105394,	0.000727
4.266367,	0.105698,	0.000729
4.297395,	0.106000,	0.000731
4.328423,	0.106302,	0.000733
4.359451,	0.106602,	0.000735
4.390480,	0.106901,	0.000737
4.421508,	0.107200,	0.000739
4.452536,	0.107497,	0.000741
4.483564,	0.107794,	0.000743
4.514592,	0.108090,	0.000745
4.545620,	0.108384,	0.000747
4.576648,	0.108676,	0.000749
4.607676,	0.108967,	0.000751
4.638705,	0.109256,	0.000753
4.669733,	0.109543,	0.000755
4.700761,	0.109828,	0.000757
4.731789,	0.110111,	0.000759
4.762817,	0.110393,	0.000761
4.793845,	0.110674,	0.000763
4.824873,	0.110953,	0.000765
4.855901,	0.111231,	0.000767
4.886930,	0.111507,	0.000769
4.917958,	0.111782,	0.000771
4.948986,	0.112055,	0.000773
4.980014,	0.112326,	0.000775
5.011042,	0.112596,	0.000776
5.042070,	0.112864,	0.000778
5.073098,	0.113132,	0.000780
5.104126,	0.113399,	0.000782
5.135155,	0.113665,	0.000784
5.166183,	0.113928,	0.000786
5.197211,	0.114190,	0.000787
5.228239,	0.114450,	0.000789
5.259267,	0.114707,	0.000791
5.290295,	0.114961,	0.000793
5.321323,	0.115214,	0.000794
5.352351,	0.115465,	0.000796
5.383380,	0.115714,	0.000798
5.414408,	0.115962,	0.000800
5.445436,	0.116208,	0.000801
5.476464,	0.116452,	0.000803
5.507492,	0.116694,	0.000805
5.538520,	0.116934,	0.000806
5.569548,	0.117172,	0.000808
5.600576,	0.117408,	0.000810
5.631605,	0.117643,	0.000811
5.662633,	0.117876,	0.000813
5.693661,	0.118107,	0.000814
5.724689,	0.118337,	0.000816
5.755717,	0.118566,	0.000818
5.786745,	0.118792,	0.000819
5.817773,	0.119017,	0.000821
5.848801,	0.119239,	0.000822
5.879830,	0.119458,	0.000824
5.910858,	0.119675,	0.000825
5.941886,	0.119890,	0.000827
5.972914,	0.120103,	0.000828
6.003942,	0.120313,	0.000830
6.034970,	0.120521,	0.000831
6.065998,	0.120727,	0.000832
6.097026,	0.120931,	0.000834
6.128055,	0.121132,	0.000835
6.159083,	0.121331,	0.000837
6.190111,	0.121529,	0.000838
0.015514,	0.074445,	0.000420
0.046542,	0.074720,	0.000422
0.077570,	0.075032,	0.000423
0.108598,	0.075349,	0.000425
0.139627,	0.075672,	0.000427
0.170655,	0.075997,	0.000429
0.201683,	0.076325,	0.000431
0.232711,	0.076657,	0.000432
0.263739,	0.076995,	0.000434
0.294767,	0.077336,	0.000436
0.325795,	0.077680,	0.000438
0.356823,	0.078029,	0.000440
0.387852,	0.078381,	0.000442
0.418880,	0.078738,	0.000444
0.449908,	0.079099,	0.000446
0.480936,	0.079463,	0.000448
0.511964,	0.079829,	0.000450
0.542992,	0.080198,	0.000452
0.574020,	0.080569,	0.000455
0.605048,	0.080942,	0.000457
0.636077,	0.081316,	0.000459
0.667105,	0.081694,	0.000461
0.698133,	0.082075,	0.000463
0.729161,	0.082457,	0.000465
0.760189,	0.082842,	0.000467
0.791217,	0.083229,	0.000470
0.822245,	0.083617,	0.000472
0.853273,	0.084008,	0.000474
0.884302,	0.084400,	0.000476
0.915330,	0.084795,	0.000478
0.946358,	0.085192,	0.000481