TITLE = "MeshVolumeStats"
VARIABLES = "X", "Y", "VOL"
ZONE I=100, J=50, DATAPACKING=POINT
0.002070,	0.000330,	0.000003
0.006210,	0.000334,	0.000003
0.010351,	0.000340,	0.000003
0.014491,	0.000346,	0.000003
0.018631,	0.000352,	0.000003
0.022771,	0.000359,	0.000003
0.026911,	0.000365,	0.000003
0.031052,	0.000372,	0.000003
0.035192,	0.000380,	0.000003
0.039332,	0.000387,	0.000003
0.043472,	0.000395,	0.000003
0.047612,	0.000402,	0.000003
0.051753,	0.000410,	0.000003
0.055893,	0.000418,	0.000003
0.060033,	0.000426,	0.000004
0.064173,	0.000433,	0.000004
0.068313,	0.000441,	0.000004
0.072454,	0.000449,	0.000004
0.076594,	0.000457,	0.000004
0.080734,	0.000465,	0.000004
0.084874,	0.000473,	0.000004
0.089014,	0.000481,	0.000004
0.093155,	0.000489,	0.000004
0.097295,	0.000497,	0.000004
0.101435,	0.000505,	0.000004
0.105575,	0.000513,	0.000004
0.109715,	0.000521,	0.000004
0.113856,	0.000529,	0.000004
0.117996,	0.000536,	0.000004
0.122136,	0.000544,	0.000005
0.126276,	0.000552,	0.000005
0.130416,	0.000559,	0.000005
0.134557,	0.000566,	0.000005
0.138697,	0.000574,	0.000005
0.142837,	0.000581,	0.000005
0.146977,	0.000588,	0.000005
0.151117,	0.000595,	0.000005
0.155257,	0.000602,	0.000005
0.159398,	0.000609,	0.000005
0.163538,	0.000615,	0.000005
0.167678,	0.000622,	0.000005
0.171818,	0.000628,	0.000005
0.175959,	0.000635,	0.000005
0.180099,	0.000641,	0.000005
0.184239,	0.000647,	0.000005
0.188379,	0.000652,	0.000005
0.192519,	0.000658,	0.000005
0.196659,	0.000663,	0.000005
0.200800,	0.000669,	0.000006
0.204940,	0.000674,	0.000006
0.209080,	0.000679,	0.000006
0.213220,	0.000683,	0.000006
0.217361,	0.000688,	0.000006
0.221501,	0.000692,	0.000006
0.225641,	0.000696,	0.000006
0.229781,	0.000700,	0.000006
0.233921,	0.000704,	0.000006
0.238061,	0.000708,	0.000006
0.242202,	0.000711,	0.000006
0.246342,	0.000715,	0.000006
0.250482,	0.000718,	0.000006
0.254622,	0.000721,	0.000006
0.258763,	0.000724,	0.000006
0.262903,	0.000727,	0.000006
0.267043,	0.000730,	0.000006
0.271183,	0.000732,	0.000006
0.275323,	0.000735,	0.000006
0.279463,	0.000737,	0.000006
0.283604,	0.000740,	0.000006
0.287744,	0.000742,	0.000006
0.291884,	0.000744,	0.000006
0.296024,	0.000746,	0.000006
0.300165,	0.000747,	0.000006
0.304305,	0.000749,	0.000006
0.308445,	0.000751,	0.000006
0.312585,	0.000753,	0.000006
0.316725,	0.000754,	0.000006
0.320866,	0.000755,	0.000006
0.325006,	0.000757,	0.000006
0.329146,	0.000758,	0.000006
0.333286,	0.000759,	0.000006
0.337426,	0.000760,	0.000006
0.341567,	0.000761,	0.000006
0.345707,	0.000762,	0.000006
0.349847,	0.000763,	0.000006
0.353987,	0.000764,	0.000006
0.358127,	0.000764,	0.000006
0.362267,	0.000765,	0.000006
0.366408,	0.000765,	0.000006
0.370548,	0.000766,	0.000006
0.374688,	0.000766,	0.000006
0.378828,	0.000767,	0.000006
0.382969,	0.000767,	0.000006
0.387109,	0.000768,	0.000006
0.391249,	0.000768,	0.000006
0.395389,	0.000768,	0.000006
0.399529,	0.000768,	0.000006
0.403670,	0.000768,	0.000006
0.407810,	0.000768,	0.000006
0.411950,	0.000768,	0.000006
0.002070,	0.000989,	0.000003
0.006210,	0.001002,	0.000003
0.010351,	0.001019,	0.000003
0.014491,	0.001037,	0.000003
0.018631,	0.001056,	0.000003
0.022771,	0.001076,	0.000003
0.026911,	0.001096,	0.000003
0.031052,	0.001117,	0.000003
0.035192,	0.001139,	0.000003
0.039332,	0.001161,	0.000003
0.043472,	0.001184,	0.000003
0.047612,	0.001206,	0.000003
0.051753,	0.001230,	0.000003
0.055893,	0.001253,	0.000003
0.060033,	0.001277,	0.000004
0.064173,	0.001300,	0.000004
0.068313,	0.001324,	0.000004
0.072454,	0.001348,	0.000004
0.076594,	0.001372,	0.000004
0.080734,	0.001396,	0.000004
0.084874,	0.001420,	0.000004
0.089014,	0.001444,	0.000004
0.093155,	0.001468,	0.000004
0.097295,	0.001492,	0.000004
0.101435,	0.001515,	0.000004
0.105575,	0.001539,	0.000004
0.109715,	0.001562,	0.000004
0.113856,	0.001586,	0.000004
0.117996,	0.001609,	0.000004
0.122136,	0.001632,	0.000005
0.126276,	0.001655,	0.000005
0.130416,	0.001677,	0.000005
0.134557,	0.001699,	0.000005
0.138697,	0.001721,	0.000005
0.142837,	0.001743,	0.000005
0.146977,	0.001764,	0.000005
0.151117,	0.001785,	0.000005
0.155257,	0.001806,	0.000005
0.159398,	0.001826,	0.000005
0.163538,	0.001846,	0.000005
0.167678,	0.001866,	0.000005
0.171818,	0.001885,	0.000005
0.175959,	0.001904,	0.000005
0.180099,	0.001922,	0.000005
0.184239,	0.001940,	0.000005
0.188379,	0.001957,	0.000005
0.192519,	0.001974,	0.000005
0.196659,	0.001990,	0.000005
0.200800,	0.002006,	0.000006
0.204940,	0.002021,	0.000006
0.209080,	0.002036,	0.000006
0.213220,	0.002050,	0.000006
0.217361,	0.002064,	0.000006
0.221501,	0.002077,	0.000006
0.225641,	0.002089,	0.000006
0.229781,	0.002101,	0.000006
0.233921,	0.002113,	0.000006
0.238061,	0.002124,	0.000006
0.242202,	0.002134,	0.000006
0.246342,	0.002144,	0.000006
0.250482,	0.002154,	0.000006
0.254622,	0.002164,	0.000006
0.258763,	0.002173,	0.000006
0.262903,	0.002181,	0.000006
0.267043,	0.002189,	0.000006
0.271183,	0.002197,	0.000006
0.275323,	0.002205,	0.000006
0.279463,	0.002212,	0.000006
0.283604,	0.002219,	0.000006
0.287744,	0.002225,	0.000006
0.291884,	0.002231,	0.000006
0.296024,	0.002237,	0.000006
0.300165,	0.002242,	0.000006
0.304305,	0.002248,	0.000006
0.308445,	0.002253,	0.000006
0.312585,	0.002258,	0.000006
0.316725,	0.002262,	0.000006
0.320866,	0.002266,	0.000006
0.325006,	0.002270,	0.000006
0.329146,	0.002273,	0.000006
0.333286,	0.002277,	0.000006
0.337426,	0.002280,	0.000006
0.341567,	0.002283,	0.000006
0.345707,	0.002286,	0.000006
0.349847,	0.002289,	0.000006
0.353987,	0.002291,	0.000006
0.358127,	0.002293,	0.000006
0.362267,	0.002295,	0.000006
0.366408,	0.002296,	0.000006
0.370548,	0.002298,	0.000006
0.374688,	0.002299,	0.000006
0.378828,	0.002301,	0.000006
0.382969,	0.002302,	0.000006
0.387109,	0.002303,	0.000006
0.391249,	0.002303,	0.000006
0.395389,	0.002303,	0.000006
0.399529,	0.002304,	0.000006
0.403670,	0.002304,	0.000006
0.407810,	0.002305,	0.000006
0.411950,	0.002305,	0.000006
0.002070,	0.001648,	0.000003
0.006210,	0.001670,	0.000003
0.010351,	0.001698,	0.000003
0.014491,	0.001728,	0.000003
0.018631,	0.001759,	0.000003
0.022771,	0.001793,	0.000003
0.026911,	0.001827,	0.000003
0.031052,	0.001862,	0.000003
0.035192,	0.001898,	0.000003
0.039332,	0.001935,	0.000003
0.043472,	0.001973,	0.000003
0.047612,	0.002011,	0.000003
0.051753,	0.002049,	0.000003
0.055893,	0.002088,	0.000003
0.060033,	0.002128,	0.000004
0.064173,	0.002167,	0.000004
0.068313,	0.002207,	0.000004
0.072454,	0.002247,	0.000004
0.076594,	0.002287,	0.000004
0.080734,	0.002327,	0.000004
0.084874,	0.002367,	0.000004
0.089014,	0.002407,	0.000004
0.093155,	0.002446,	0.000004
0.097295,	0.002486,	0.000004
0.101435,	0.002526,	0.000004
0.105575,	0.002565,	0.000004
0.109715,	0.002604,	0.000004
0.113856,	0.002643,	0.000004
0.117996,	0.002682,	0.000004
0.122136,	0.002720,	0.000005
0.126276,	0.002758,	0.000005
0.130416,	0.002795,	0.000005
0.134557,	0.002832,	0.000005
0.138697,	0.002869,	0.000005
0.142837,	0.002905,	0.000005
0.146977,	0.002940,	0.000005
0.151117,	0.002975,	0.000005
0.155257,	0.003010,	0.000005
0.159398,	0.003044,	0.000005
0.163538,	0.003077,	0.000005
0.167678,	0.003110,	0.000005
0.171818,	0.003141,	0.000005
0.175959,	0.003173,	0.000005
0.180099,	0.003203,	0.000005
0.184239,	0.003233,	0.000005
0.188379,	0.003262,	0.000005
0.192519,	0.003290,	0.000005
0.196659,	0.003317,	0.000005
0.200800,	0.003343,	0.000006
0.204940,	0.003369,	0.000006
0.209080,	0.003393,	0.000006
0.213220,	0.003417,	0.000006
0.217361,	0.003439,	0.000006
0.221501,	0.003461,	0.000006
0.225641,	0.003482,	0.000006
0.229781,	0.003502,	0.000006
0.233921,	0.003521,	0.000006
0.238061,	0.003539,	0.000006
0.242202,	0.003557,	0.000006
0.246342,	0.003574,	0.000006
0.250482,	0.003590,	0.000006
0.254622,	0.003607,	0.000006
0.258763,	0.003621,	0.000006
0.262903,	0.003635,	0.000006
0.267043,	0.003648,	0.000006
0.271183,	0.003662,	0.000006
0.275323,	0.003675,	0.000006
0.279463,	0.003687,	0.000006
0.283604,	0.003699,	0.000006
0.287744,	0.003709,	0.000006
0.291884,	0.003718,	0.000006
0.296024,	0.003728,	0.000006
0.300165,	0.003737,	0.000006
0.304305,	0.003747,	0.000006
0.308445,	0.003755,	0.000006
0.312585,	0.003763,	0.000006
0.316725,	0.003771,	0.000006
0.320866,	0.003777,	0.000006
0.325006,	0.003783,	0.000006
0.329146,	0.003788,	0.000006
0.333286,	0.003794,	0.000006
0.337426,	0.003800,	0.000006
0.341567,	0.003805,	0.000006
0.345707,	0.003810,	0.000006
0.349847,	0.003814,	0.000006
0.353987,	0.003818,	0.000006
0.358127,	0.003822,	0.000006
0.362267,	0.003824,	0.000006
0.366408,	0.003827,	0.000006
0.370548,	0.003830,	0.000006
0.374688,	0.003832,	0.000006
0.378828,	0.003834,	0.000006
0.382969,	0.003836,	0.000006
0.387109,	0.003838,	0.000006
0.391249,	0.003838,	0.000006
0.395389,	0.003839,	0.000006
0.399529,	0.003840,	0.000006
0.403670,	0.003841,	0.000006
0.407810,	0.003841,	0.000006
0.411950,	0.003842,	0.000006
0.002070,	0.002307,	0.000003
0.006210,	0.002338,	0.000003
0.010351,	0.002377,	0.000003
0.014491,	0.002419,	0.000003
0.018631,	0.002463,	0.000003
0.022771,	0.002510,	0.000003
0.026911,	0.002557,	0.000003
0.031052,	0.002607,	0.000003
0.035192,	0.002658,	0.000003
0.039332,	0.002709,	0.000003
0.043472,	0.002762,	0.000003
0.047612,	0.002815,	0.000003
0.051753,	0.002869,	0.000003
0.055893,	0.002924,	0.000003
0.060033,	0.002979,	0.000004
0.064173,	0.003034,	0.000004
0.068313,	0.003090,	0.000004
0.072454,	0.003145,	0.000004
0.076594,	0.003201,	0.000004
0.080734,	0.003257,	0.000004
0.084874,	0.003313,	0.000004
0.089014,	0.003369,	0.000004
0.093155,	0.003425,	0.000004
0.097295,	0.003481,	0.000004
0.101435,	0.003536,	0.000004
0.105575,	0.003591,	0.000004
0.109715,	0.003646,	0.000004
0.113856,	0.003700,	0.000004
0.117996,	0.003754,	0.000004
0.122136,	0.003808,	0.000005
0.126276,	0.003861,	0.000005
0.130416,	0.003913,	0.000005
0.134557,	0.003965,	0.000005
0.138697,	0.004016,	0.000005
0.142837,	0.004067,	0.000005
0.146977,	0.004117,	0.000005
0.151117,	0.004166,	0.000005
0.155257,	0.004214,	0.000005
0.159398,	0.004261,	0.000005
0.163538,	0.004308,	0.000005
0.167678,	0.004353,	0.000005
0.171818,	0.004398,	0.000005
0.175959,	0.004442,	0.000005
0.180099,	0.004484,	0.000005
0.184239,	0.004526,	0.000005
0.188379,	0.004566,	0.000005
0.192519,	0.004606,	0.000005
0.196659,	0.004644,	0.000005
0.200800,	0.004681,	0.000006
0.204940,	0.004716,	0.000006
0.209080,	0.004751,	0.000006
0.213220,	0.004784,	0.000006
0.217361,	0.004815,	0.000006
0.221501,	0.004845,	0.000006
0.225641,	0.004874,	0.000006
0.229781,	0.004902,	0.000006
0.233921,	0.004929,	0.000006
0.238061,	0.004955,	0.000006
0.242202,	0.004979,	0.000006
0.246342,	0.005003,	0.000006
0.250482,	0.005026,	0.000006
0.254622,	0.005049,	0.000006
0.258763,	0.005070,	0.000006
0.262903,	0.005088,	0.000006
0.267043,	0.005107,	0.000006
0.271183,	0.005126,	0.000006
0.275323,	0.005145,	0.000006
0.279463,	0.005162,	0.000006
0.283604,	0.005178,	0.000006
0.287744,	0.005193,	0.000006
0.291884,	0.005205,	0.000006
0.296024,	0.005219,	0.000006
0.300165,	0.005232,	0.000006
0.304305,	0.005245,	0.000006
0.308445,	0.005257,	0.000006
0.312585,	0.005269,	0.000006
0.316725,	0.005279,	0.000006
0.320866,	0.005288,	0.000006
0.325006,	0.005296,	0.000006
0.329146,	0.005304,	0.000006
0.333286,	0.005312,	0.000006
0.337426,	0.005320,	0.000006
0.341567,	0.005327,	0.000006
0.345707,	0.005334,	0.000006
0.349847,	0.005340,	0.000006
0.353987,	0.005346,	0.000006
0.358127,	0.005350,	0.000006
0.362267,	0.005354,	0.000006
0.366408,	0.005358,	0.000006
0.370548,	0.005361,	0.000006
0.374688,	0.005365,	0.000006
0.378828,	0.005368,	0.000006
0.382969,	0.005371,	0.000006
0.387109,	0.005373,	0.000006
0.391249,	0.005373,	0.000006
0.395389,	0.005374,	0.000006
0.399529,	0.005376,	0.000006
0.403670,	0.005377,	0.000006
0.407810,	0.005378,	0.000006
0.411950,	0.005379,	0.000006
0.002070,	0.002966,	0.000003
0.006210,	0.003006,	0.000003
0.010351,	0.003056,	0.000003
0.014491,	0.003110,	0.000003
0.018631,	0.003167,	0.000003
0.022771,	0.003227,	0.000003
0.026911,	0.003288,	0.000003
0.031052,	0.003352,	0.000003
0.035192,	0.003417,	0.000003
0.039332,	0.003483,	0.000003
0.043472,	0.003551,	0.000003
0.047612,	0.003619,	0.000003
0.051753,	0.003689,	0.000003
0.055893,	0.003759,	0.000003
0.060033,	0.003830,	0.000004
0.064173,	0.003901,	0.000004
0.068313,	0.003972,	0.000004
0.072454,	0.004044,	0.000004
0.076594,	0.004116,	0.000004
0.080734,	0.004188,	0.000004
0.084874,	0.004260,	0.000004
0.089014,	0.004332,	0.000004
0.093155,	0.004404,	0.000004
0.097295,	0.004475,	0.000004
0.101435,	0.004546,	0.000004
0.105575,	0.004617,	0.000004
0.109715,	0.004687,	0.000004
0.113856,	0.004757,	0.000004
0.117996,	0.004827,	0.000004
0.122136,	0.004896,	0.000005
0.126276,	0.004964,	0.000005
0.130416,	0.005031,	0.000005
0.134557,	0.005098,	0.000005
0.138697,	0.005164,	0.000005
0.142837,	0.005229,	0.000005
0.146977,	0.005293,	0.000005
0.151117,	0.005356,	0.000005
0.155257,	0.005418,	0.000005
0.159398,	0.005479,	0.000005
0.163538,	0.005539,	0.000005
0.167678,	0.005597,	0.000005
0.171818,	0.005655,	0.000005
0.175959,	0.005711,	0.000005
0.180099,	0.005766,	0.000005
0.184239,	0.005819,	0.000005
0.188379,	0.005871,	0.000005
0.192519,	0.005922,	0.000005
0.196659,	0.005971,	0.000005
0.200800,	0.006018,	0.000006
0.204940,	0.006064,	0.000006
0.209080,	0.006108,	0.000006
0.213220,	0.006150,	0.000006
0.217361,	0.006191,	0.000006
0.221501,	0.006230,	0.000006
0.225641,	0.006267,	0.000006
0.229781,	0.006303,	0.000006
0.233921,	0.006338,	0.000006
0.238061,	0.006371,	0.000006
0.242202,	0.006402,	0.000006
0.246342,	0.006432,	0.000006
0.250482,	0.006463,	0.000006
0.254622,	0.006492,	0.000006
0.258763,	0.006518,	0.000006
0.262903,	0.006542,	0.000006
0.267043,	0.006567,	0.000006
0.271183,	0.006591,	0.000006
0.275323,	0.006614,	0.000006
0.279463,	0.006637,	0.000006
0.283604,	0.006658,	0.000006
0.287744,	0.006676,	0.000006
0.291884,	0.006693,	0.000006
0.296024,	0.006710,	0.000006
0.300165,	0.006727,	0.000006
0.304305,	0.006744,	0.000006
0.308445,	0.006759,	0.000006
0.312585,	0.006774,	0.000006
0.316725,	0.006787,	0.000006
0.320866,	0.006799,	0.000006
0.325006,	0.006809,	0.000006
0.329146,	0.006819,	0.000006
0.333286,	0.006830,	0.000006
0.337426,	0.006840,	0.000006
0.341567,	0.006849,	0.000006
0.345707,	0.006858,	0.000006
0.349847,	0.006866,	0.000006
0.353987,	0.006873,	0.000006
0.358127,	0.006879,	0.000006
0.362267,	0.006884,	0.000006
0.366408,	0.006888,	0.000006
0.370548,	0.006893,	0.000006
0.374688,	0.006898,	0.000006
0.378828,	0.006902,	0.000006
0.382969,	0.006905,	0.000006
0.387109,	0.006908,	0.000006
0.391249,	0.006909,	0.000006
0.395389,	0.006910,	0.000006
0.399529,	0.006912,	0.000006
0.403670,	0.006913,	0.000006
0.407810,	0.006914,	0.000006
0.411950,	0.006915,	0.000006
0.002070,	0.003625,	0.000003
0.006210,	0.003674,	0.000003
0.010351,	0.003735,	0.000003
0.014491,	0.003801,	0.000003
0.018631,	0.003871,	0.000003
0.022771,	0.003944,	0.000003
0.026911,	0.004019,	0.000003
0.031052,	0.004096,	0.000003
0.035192,	0.004176,	0.000003
0.039332,	0.004257,	0.000003
0.043472,	0.004340,	0.000003
0.047612,	0.004424,	0.000003
0.051753,	0.004509,	0.000003
0.055893,	0.004594,	0.000003
0.060033,	0.004681,	0.000004
0.064173,	0.004768,	0.000004
0.068313,	0.004855,	0.000004
0.072454,	0.004943,	0.000004
0.076594,	0.005031,	0.000004
0.080734,	0.005119,	0.000004
0.084874,	0.005207,	0.000004
0.089014,	0.005294,	0.000004
0.093155,	0.005382,	0.000004
0.097295,	0.005470,	0.000004
0.101435,	0.005557,	0.000004
0.105575,	0.005643,	0.000004
0.109715,	0.005729,	0.000004
0.113856,	0.005815,	0.000004
0.117996,	0.005899,	0.000004
0.122136,	0.005984,	0.000005
0.126276,	0.006067,	0.000005
0.130416,	0.006149,	0.000005
0.134557,	0.006231,	0.000005
0.138697,	0.006311,	0.000005
0.142837,	0.006390,	0.000005
0.146977,	0.006469,	0.000005
0.151117,	0.006546,	0.000005
0.155257,	0.006622,	0.000005
0.159398,	0.006696,	0.000005
0.163538,	0.006769,	0.000005
0.167678,	0.006841,	0.000005
0.171818,	0.006911,	0.000005
0.175959,	0.006980,	0.000005
0.180099,	0.007047,	0.000005
0.184239,	0.007112,	0.000005
0.188379,	0.007176,	0.000005
0.192519,	0.007238,	0.000005
0.196659,	0.007297,	0.000005
0.200800,	0.007355,	0.000006
0.204940,	0.007411,	0.000006
0.209080,	0.007465,	0.000006
0.213220,	0.007517,	0.000006
0.217361,	0.007566,	0.000006
0.221501,	0.007614,	0.000006
0.225641,	0.007660,	0.000006
0.229781,	0.007704,	0.000006
0.233921,	0.007746,	0.000006
0.238061,	0.007787,	0.000006
0.242202,	0.007825,	0.000006
0.246342,	0.007862,	0.000006
0.250482,	0.007899,	0.000006
0.254622,	0.007934,	0.000006
0.258763,	0.007967,	0.000006
0.262903,	0.007996,	0.000006
0.267043,	0.008026,	0.000006
0.271183,	0.008056,	0.000006
0.275323,	0.008084,	0.000006
0.279463,	0.008112,	0.000006
0.283604,	0.008138,	0.000006
0.287744,	0.008160,	0.000006
0.291884,	0.008180,	0.000006
0.296024,	0.008201,	0.000006
0.300165,	0.008222,	0.000006
0.304305,	0.008242,	0.000006
0.308445,	0.008261,	0.000006
0.312585,	0.008279,	0.000006
0.316725,	0.008296,	0.000006
0.320866,	0.008310,	0.000006
0.325006,	0.008322,	0.000006
0.329146,	0.008334,	0.000006
0.333286,	0.008347,	0.000006
0.337426,	0.008360,	0.000006
0.341567,	0.008371,	0.000006
0.345707,	0.008382,	0.000006
0.349847,	0.008392,	0.000006
0.353987,	0.008401,	0.000006
0.358127,	0.008408,	0.000006
0.362267,	0.008413,	0.000006
0.366408,	0.008419,	0.000006
0.370548,	0.008425,	0.000006
0.374688,	0.008430,	0.000006
0.378828,	0.008435,	0.000006
0.382969,	0.008440,	0.000006
0.387109,	0.008443,	0.000006
0.391249,	0.008444,	0.000006
0.395389,	0.008445,	0.000006
0.399529,	0.008448,	0.000006
0.403670,	0.008450,	0.000006
0.407810,	0.008451,	0.000006
0.411950,	0.008452,	0.000006
0.002070,	0.004284,	0.000003
0.006210,	0.004342,	0.000003
0.010351,	0.004415,	0.000003
0.014491,	0.004492,	0.000003
0.018631,	0.004575,	0.000003
0.022771,	0.004661,	0.000003
0.026911,	0.004750,	0.000003
0.031052,	0.004841,	0.000003
0.035192,	0.004935,	0.000003
0.039332,	0.005031,	0.000003
0.043472,	0.005129,	0.000003
0.047612,	0.005228,	0.000003
0.051753,	0.005328,	0.000003
0.055893,	0.005430,	0.000003
0.060033,	0.005532,	0.000004
0.064173,	0.005634,	0.000004
0.068313,	0.005738,	0.000004
0.072454,	0.005841,	0.000004
0.076594,	0.005945,	0.000004
0.080734,	0.006049,	0.000004
0.084874,	0.006153,	0.000004
0.089014,	0.006257,	0.000004
0.093155,	0.006361,	0.000004
0.097295,	0.006464,	0.000004
0.101435,	0.006567,	0.000004
0.105575,	0.006669,	0.000004
0.109715,	0.006771,	0.000004
0.113856,	0.006872,	0.000004
0.117996,	0.006972,	0.000004
0.122136,	0.007072,	0.000005
0.126276,	0.007170,	0.000005
0.130416,	0.007267,	0.000005
0.134557,	0.007363,	0.000005
0.138697,	0.007458,	0.000005
0.142837,	0.007552,	0.000005
0.146977,	0.007645,	0.000005
0.151117,	0.007736,	0.000005
0.155257,	0.007826,	0.000005
0.159398,	0.007914,	0.000005
0.163538,	0.008000,	0.000005
0.167678,	0.008085,	0.000005
0.171818,	0.008168,	0.000005
0.175959,	0.008249,	0.000005
0.180099,	0.008328,	0.000005
0.184239,	0.008405,	0.000005
0.188379,	0.008480,	0.000005
0.192519,	0.008553,	0.000005
0.196659,	0.008624,	0.000005
0.200800,	0.008693,	0.000006
0.204940,	0.008759,	0.000006
0.209080,	0.008823,	0.000006
0.213220,	0.008884,	0.000006
0.217361,	0.008942,	0.000006
0.221501,	0.008998,	0.000006
0.225641,	0.009053,	0.000006
0.229781,	0.009104,	0.000006
0.233921,	0.009154,	0.000006
0.238061,	0.009203,	0.000006
0.242202,	0.009247,	0.000006
0.246342,	0.009291,	0.000006
0.250482,	0.009335,	0.000006
0.254622,	0.009377,	0.000006
0.258763,	0.009415,	0.000006
0.262903,	0.009450,	0.000006
0.267043,	0.009485,	0.000006
0.271183,	0.009520,	0.000006
0.275323,	0.009554,	0.000006
0.279463,	0.009587,	0.000006
0.283604,	0.009617,	0.000006
0.287744,	0.009644,	0.000006
0.291884,	0.009667,	0.000006
0.296024,	0.009692,	0.000006
0.300165,	0.009717,	0.000006
0.304305,	0.009741,	0.000006
0.308445,	0.009764,	0.000006
0.312585,	0.009785,	0.000006
0.316725,	0.009804,	0.000006
0.320866,	0.009820,	0.000006
0.325006,	0.009835,	0.000006
0.329146,	0.009850,	0.000006
0.333286,	0.009865,	0.000006
0.337426,	0.009880,	0.000006
0.341567,	0.009893,	0.000006
0.345707,	0.009906,	0.000006
0.349847,	0.009918,	0.000006
0.353987,	0.009928,	0.000006
0.358127,	0.009936,	0.000006
0.362267,	0.009943,	0.000006
0.366408,	0.009950,	0.000006
0.370548,	0.009957,	0.000006
0.374688,	0.009963,	0.000006
0.378828,	0.009969,	0.000006
0.382969,	0.009974,	0.000006
0.387109,	0.009978,	0.000006
0.391249,	0.009979,	0.000006
0.395389,	0.009981,	0.000006
0.399529,	0.009984,	0.000006
0.403670,	0.009986,	0.000006
0.407810,	0.009988,	0.000006
0.411950,	0.009989,	0.000006
0.002070,	0.004943,	0.000003
0.006210,	0.005010,	0.000003
0.010351,	0.005094,	0.000003
0.014491,	0.005183,	0.000003
0.018631,	0.005278,	0.000003
0.022771,	0.005378,	0.000003
0.026911,	0.005480,	0.000003
0.031052,	0.005586,	0.000003
0.035192,	0.005695,	0.000003
0.039332,	0.005805,	0.000003
0.043472,	0.005918,	0.000003
0.047612,	0.006032,	0.000003
0.051753,	0.006148,	0.000003
0.055893,	0.006265,	0.000003
0.060033,	0.006383,	0.000004
0.064173,	0.006501,	0.000004
0.068313,	0.006620,	0.000004
0.072454,	0.006740,	0.000004
0.076594,	0.006860,	0.000004
0.080734,	0.006980,	0.000004
0.084874,	0.007100,	0.000004
0.089014,	0.007220,	0.000004
0.093155,	0.007339,	0.000004
0.097295,	0.007458,	0.000004
0.101435,	0.007577,	0.000004
0.105575,	0.007695,	0.000004
0.109715,	0.007812,	0.000004
0.113856,	0.007929,	0.000004
0.117996,	0.008045,	0.000004
0.122136,	0.008159,	0.000005
0.126276,	0.008273,	0.000005
0.130416,	0.008385,	0.000005
0.134557,	0.008496,	0.000005
0.138697,	0.008606,	0.000005
0.142837,	0.008714,	0.000005
0.146977,	0.008821,	0.000005
0.151117,	0.008926,	0.000005
0.155257,	0.009029,	0.000005
0.159398,	0.009131,	0.000005
0.163538,	0.009231,	0.000005
0.167678,	0.009329,	0.000005
0.171818,	0.009424,	0.000005
0.175959,	0.009518,	0.000005
0.180099,	0.009609,	0.000005
0.184239,	0.009699,	0.000005
0.188379,	0.009785,	0.000005
0.192519,	0.009869,	0.000005
0.196659,	0.009951,	0.000005
0.200800,	0.010030,	0.000006
0.204940,	0.010106,	0.000006
0.209080,	0.010180,	0.000006
0.213220,	0.010250,	0.000006
0.217361,	0.010318,	0.000006
0.221501,	0.010383,	0.000006
0.225641,	0.010445,	0.000006
0.229781,	0.010505,	0.000006
0.233921,	0.010563,	0.000006
0.238061,	0.010618,	0.000006
0.242202,	0.010670,	0.000006
0.246342,	0.010721,	0.000006
0.250482,	0.010771,	0.000006
0.254622,	0.010820,	0.000006
0.258763,	0.010864,	0.000006
0.262903,	0.010904,	0.000006
0.267043,	0.010944,	0.000006
0.271183,	0.010985,	0.000006
0.275323,	0.011024,	0.000006
0.279463,	0.011061,	0.000006
0.283604,	0.011097,	0.000006
0.287744,	0.011127,	0.000006
0.291884,	0.011154,	0.000006
0.296024,	0.011183,	0.000006
0.300165,	0.011212,	0.000006
0.304305,	0.011240,	0.000006
0.308445,	0.011266,	0.000006
0.312585,	0.011290,	0.000006
0.316725,	0.011312,	0.000006
0.320866,	0.011331,	0.000006
0.325006,	0.011348,	0.000006
0.329146,	0.011365,	0.000006
0.333286,	0.011383,	0.000006
0.337426,	0.011400,	0.000006
0.341567,	0.011416,	0.000006
0.345707,	0.011430,	0.000006
0.349847,	0.011443,	0.000006
0.353987,	0.011455,	0.000006
0.358127,	0.011465,	0.000006
0.362267,	0.011473,	0.000006
0.366408,	0.011480,	0.000006
0.370548,	0.011489,	0.000006
0.374688,	0.011496,	0.000006
0.378828,	0.011503,	0.000006
0.382969,	0.011509,	0.000006
0.387109,	0.011513,	0.000006
0.391249,	0.011515,	0.000006
0.395389,	0.011517,	0.000006
0.399529,	0.011520,	0.000006
0.403670,	0.011522,	0.000006
0.407810,	0.011524,	0.000006
0.411950,	0.011526,	0.000006
0.002070,	0.005602,	0.000003
0.006210,	0.005678,	0.000003
0.010351,	0.005773,	0.000003
0.014491,	0.005874,	0.000003
0.018631,	0.005982,	0.000003
0.022771,	0.006095,	0.000003
0.026911,	0.006211,	0.000003
0.031052,	0.006331,	0.000003
0.035192,	0.006454,	0.000003
0.039332,	0.006579,	0.000003
0.043472,	0.006707,	0.000003
0.047612,	0.006836,	0.000003
0.051753,	0.006968,	0.000003
0.055893,	0.007100,	0.000003
0.060033,	0.007234,	0.000004
0.064173,	0.007368,	0.000004
0.068313,	0.007503,	0.000004
0.072454,	0.007639,	0.000004
0.076594,	0.007775,	0.000004
0.080734,	0.007911,	0.000004
0.084874,	0.008047,	0.000004
0.089014,	0.008182,	0.000004
0.093155,	0.008318,	0.000004
0.097295,	0.008453,	0.000004
0.101435,	0.008587,	0.000004
0.105575,	0.008721,	0.000004
0.109715,	0.008854,	0.000004
0.113856,	0.008986,	0.000004
0.117996,	0.009117,	0.000004
0.122136,	0.009247,	0.000005
0.126276,	0.009376,	0.000005
0.130416,	0.009503,	0.000005
0.134557,	0.009629,	0.000005
0.138697,	0.009753,	0.000005
0.142837,	0.009876,	0.000005
0.146977,	0.009997,	0.000005
0.151117,	0.010116,	0.000005
0.155257,	0.010233,	0.000005
0.159398,	0.010349,	0.000005
0.163538,	0.010462,	0.000005
0.167678,	0.010573,	0.000005
0.171818,	0.010681,	0.000005
0.175959,	0.010787,	0.000005
0.180099,	0.010891,	0.000005
0.184239,	0.010992,	0.000005
0.188379,	0.011090,	0.000005
0.192519,	0.011185,	0.000005
0.196659,	0.011278,	0.000005
0.200800,	0.011367,	0.000006
0.204940,	0.011454,	0.000006
0.209080,	0.011537,	0.000006
0.213220,	0.011617,	0.000006
0.217361,	0.011693,	0.000006
0.221501,	0.011767,	0.000006
0.225641,	0.011838,	0.000006
0.229781,	0.011906,	0.000006
0.233921,	0.011971,	0.000006
0.238061,	0.012034,	0.000006
0.242202,	0.012093,	0.000006
0.246342,	0.012150,	0.000006
0.250482,	0.012207,	0.000006
0.254622,	0.012262,	0.000006
0.258763,	0.012312,	0.000006
0.262903,	0.012358,	0.000006
0.267043,	0.012404,	0.000006
0.271183,	0.012449,	0.000006
0.275323,	0.012494,	0.000006
0.279463,	0.012536,	0.000006
0.283604,	0.012576,	0.000006
0.287744,	0.012611,	0.000006
0.291884,	0.012642,	0.000006
0.296024,	0.012674,	0.000006
0.300165,	0.012707,	0.000006
0.304305,	0.012738,	0.000006
0.308445,	0.012768,	0.000006
0.312585,	0.012795,	0.000006
0.316725,	0.012821,	0.000006
0.320866,	0.012842,	0.000006
0.325006,	0.012861,	0.000006
0.329146,	0.012880,	0.000006
0.333286,	0.012901,	0.000006
0.337426,	0.012920,	0.000006
0.341567,	0.012938,	0.000006
0.345707,	0.012954,	0.000006
0.349847,	0.012969,	0.000006
0.353987,	0.012983,	0.000006
0.358127,	0.012993,	0.000006
0.362267,	0.013002,	0.000006
0.366408,	0.013011,	0.000006
0.370548,	0.013020,	0.000006
0.374688,	0.013029,	0.000006
0.378828,	0.013036,	0.000006
0.382969,	0.013043,	0.000006
0.387109,	0.013048,	0.000006
0.391249,	0.013050,	0.000006
0.395389,	0.013052,	0.000006
0.399529,	0.013056,	0.000006
0.403670,	0.013058,	0.000006
0.407810,	0.013061,	0.000006
0.411950,	0.013062,	0.000006
0.002070,	0.006261,	0.000003
0.006210,	0.006346,	0.000003
0.010351,	0.006452,	0.000003
0.014491,	0.006566,	0.000003
0.018631,	0.006686,	0.000003
0.022771,	0.006812,	0.000003
0.026911,	0.006942,	0.000003
0.031052,	0.007076,	0.000003
0.035192,	0.007213,	0.000003
0.039332,	0.007354,	0.000003
0.043472,	0.007496,	0.000003
0.047612,	0.007641,	0.000003
0.051753,	0.007787,	0.000003
0.055893,	0.007935,	0.000003
0.060033,	0.008085,	0.000004
0.064173,	0.008235,	0.000004
0.068313,	0.008386,	0.000004
0.072454,	0.008538,	0.000004
0.076594,	0.008689,	0.000004
0.080734,	0.008841,	0.000004
0.084874,	0.008993,	0.000004
0.089014,	0.009145,	0.000004
0.093155,	0.009296,	0.000004
0.097295,	0.009447,	0.000004
0.101435,	0.009598,	0.000004
0.105575,	0.009747,	0.000004
0.109715,	0.009896,	0.000004
0.113856,	0.010043,	0.000004
0.117996,	0.010190,	0.000004
0.122136,	0.010335,	0.000005
0.126276,	0.010479,	0.000005
0.130416,	0.010621,	0.000005
0.134557,	0.010762,	0.000005
0.138697,	0.010901,	0.000005
0.142837,	0.011038,	0.000005
0.146977,	0.011173,	0.000005
0.151117,	0.011306,	0.000005
0.155257,	0.011437,	0.000005
0.159398,	0.011566,	0.000005
0.163538,	0.011693,	0.000005
0.167678,	0.011816,	0.000005
0.171818,	0.011938,	0.000005
0.175959,	0.012056,	0.000005
0.180099,	0.012172,	0.000005
0.184239,	0.012285,	0.000005
0.188379,	0.012394,	0.000005
0.192519,	0.012501,	0.000005
0.196659,	0.012604,	0.000005
0.200800,	0.012705,	0.000006
0.204940,	0.012801,	0.000006
0.209080,	0.012895,	0.000006
0.213220,	0.012984,	0.000006
0.217361,	0.013069,	0.000006
0.221501,	0.013151,	0.000006
0.225641,	0.013231,	0.000006
0.229781,	0.013306,	0.000006
0.233921,	0.013380,	0.000006
0.238061,	0.013450,	0.000006
0.242202,	0.013516,	0.000006
0.246342,	0.013579,	0.000006
0.250482,	0.013643,	0.000006
0.254622,	0.013705,	0.000006
0.258763,	0.013760,	0.000006
0.262903,	0.013811,	0.000006
0.267043,	0.013863,	0.000006
0.271183,	0.013914,	0.000006
0.275323,	0.013964,	0.000006
0.279463,	0.014011,	0.000006
0.283604,	0.014056,	0.000006
0.287744,	0.014094,	0.000006
0.291884,	0.014129,	0.000006
0.296024,	0.014165,	0.000006
0.300165,	0.014202,	0.000006
0.304305,	0.014237,	0.000006
0.308445,	0.014270,	0.000006
0.312585,	0.014301,	0.000006
0.316725,	0.014329,	0.000006
0.320866,	0.014353,	0.000006
0.325006,	0.014374,	0.000006
0.329146,	0.014396,	0.000006
0.333286,	0.014418,	0.000006
0.337426,	0.014440,	0.000006
0.341567,	0.014460,	0.000006
0.345707,	0.014478,	0.000006
0.349847,	0.014495,	0.000006
0.353987,	0.014510,	0.000006
0.358127,	0.014522,	0.000006
0.362267,	0.014532,	0.000006
0.366408,	0.014542,	0.000006
0.370548,	0.014552,	0.000006
0.374688,	0.014562,	0.000006
0.378828,	0.014570,	0.000006
0.382969,	0.014577,	0.000006
0.387109,	0.014583,	0.000006
0.391249,	0.014585,	0.000006
0.395389,	0.014588,	0.000006
0.399529,	0.014591,	0.000006
0.403670,	0.014595,	0.000006
0.407810,	0.014597,	0.000006
0.411950,	0.014599,	0.000006
0.002070,	0.006920,	0.000003
0.006210,	0.007014,	0.000003
0.010351,	0.007131,	0.000003
0.014491,	0.007257,	0.000003
0.018631,	0.007390,	0.000003
0.022771,	0.007529,	0.000003
0.026911,	0.007672,	0.000003
0.031052,	0.007821,	0.000003
0.035192,	0.007973,	0.000003
0.039332,	0.008128,	0.000003
0.043472,	0.008285,	0.000003
0.047612,	0.008445,	0.000003
0.051753,	0.008607,	0.000003
0.055893,	0.008771,	0.000003
0.060033,	0.008936,	0.000004
0.064173,	0.009102,	0.000004
0.068313,	0.009269,	0.000004
0.072454,	0.009436,	0.000004
0.076594,	0.009604,	0.000004
0.080734,	0.009772,	0.000004
0.084874,	0.009940,	0.000004
0.089014,	0.010108,	0.000004
0.093155,	0.010275,	0.000004
0.097295,	0.010442,	0.000004
0.101435,	0.010608,	0.000004
0.105575,	0.010773,	0.000004
0.109715,	0.010937,	0.000004
0.113856,	0.011101,	0.000004
0.117996,	0.011263,	0.000004
0.122136,	0.011423,	0.000005
0.126276,	0.011582,	0.000005