TITLE = "MeshVolumeStats"
VARIABLES = "X", "Y", "VOL"
ZONE I=100, J=50, DATAPACKING=POINT
0.001524,	0.000329,	0.000002
0.004572,	0.000331,	0.000002
0.007620,	0.000334,	0.000002
0.010668,	0.000338,	0.000002
0.013716,	0.000342,	0.000002
0.016764,	0.000347,	0.000002
0.019812,	0.000351,	0.000002
0.022860,	0.000356,	0.000002
0.025908,	0.000361,	0.000002
0.028956,	0.000366,	0.000002
0.032004,	0.000371,	0.000002
0.035052,	0.000376,	0.000002
0.038100,	0.000381,	0.000002
0.041148,	0.000387,	0.000002
0.044196,	0.000392,	0.000002
0.047244,	0.000398,	0.000002
0.050292,	0.000403,	0.000002
0.053340,	0.000409,	0.000002
0.056388,	0.000414,	0.000003
0.059436,	0.000420,	0.000003
0.062484,	0.000426,	0.000003
0.065532,	0.000431,	0.000003
0.068580,	0.000437,	0.000003
0.071628,	0.000443,	0.000003
0.074676,	0.000449,	0.000003
0.077724,	0.000455,	0.000003
0.080772,	0.000460,	0.000003
0.083820,	0.000466,	0.000003
0.086868,	0.000472,	0.000003
0.089916,	0.000478,	0.000003
0.092964,	0.000484,	0.000003
0.096012,	0.000489,	0.000003
0.099060,	0.000495,	0.000003
0.102108,	0.000501,	0.000003
0.105156,	0.000507,	0.000003
0.108204,	0.000513,	0.000003
0.111252,	0.000518,	0.000003
0.114300,	0.000524,	0.000003
0.117348,	0.000530,	0.000003
0.120396,	0.000535,	0.000003
0.123444,	0.000541,	0.000003
0.126492,	0.000546,	0.000003
0.129540,	0.000552,	0.000003
0.132588,	0.000557,	0.000003
0.135636,	0.000563,	0.000003
0.138684,	0.000568,	0.000003
0.141732,	0.000573,	0.000003
0.144780,	0.000579,	0.000004
0.147828,	0.000584,	0.000004
0.150876,	0.000589,	0.000004
0.153924,	0.000594,	0.000004
0.156972,	0.000599,	0.000004
0.160020,	0.000604,	0.000004
0.163068,	0.000609,	0.000004
0.166116,	0.000614,	0.000004
0.169164,	0.000619,	0.000004
0.172212,	0.000624,	0.000004
0.175260,	0.000628,	0.000004
0.178308,	0.000633,	0.000004
0.181356,	0.000637,	0.000004
0.184404,	0.000642,	0.000004
0.187452,	0.000646,	0.000004
0.190500,	0.000650,	0.000004
0.193548,	0.000654,	0.000004
0.196596,	0.000658,	0.000004
0.199644,	0.000662,	0.000004
0.202692,	0.000666,	0.000004
0.205740,	0.000670,	0.000004
0.208788,	0.000674,	0.000004
0.211836,	0.000677,	0.000004
0.214884,	0.000681,	0.000004
0.217932,	0.000684,	0.000004
0.220980,	0.000688,	0.000004
0.224028,	0.000691,	0.000004
0.227076,	0.000694,	0.000004
0.230124,	0.000697,	0.000004
0.233172,	0.000700,	0.000004
0.236220,	0.000703,	0.000004
0.239268,	0.000706,	0.000004
0.242316,	0.000708,	0.000004
0.245364,	0.000711,	0.000004
0.248412,	0.000713,	0.000004
0.251460,	0.000716,	0.000004
0.254508,	0.000718,	0.000004
0.257556,	0.000721,	0.000004
0.260604,	0.000723,	0.000004
0.263652,	0.000725,	0.000004
0.266700,	0.000727,	0.000004
0.269748,	0.000729,	0.000004
0.272796,	0.000731,	0.000004
0.275844,	0.000733,	0.000004
0.278892,	0.000735,	0.000004
0.281940,	0.000737,	0.000004
0.284988,	0.000738,	0.000005
0.288036,	0.000740,	0.000005
0.291084,	0.000742,	0.000005
0.294132,	0.000743,	0.000005
0.297180,	0.000745,	0.000005
0.300228,	0.000746,	0.000005
0.303276,	0.000747,	0.000005
0.001524,	0.000987,	0.000002
0.004572,	0.000992,	0.000002
0.007620,	0.001003,	0.000002
0.010668,	0.001014,	0.000002
0.013716,	0.001027,	0.000002
0.016764,	0.001040,	0.000002
0.019812,	0.001054,	0.000002
0.022860,	0.001068,	0.000002
0.025908,	0.001082,	0.000002
0.028956,	0.001097,	0.000002
0.032004,	0.001113,	0.000002
0.035052,	0.001128,	0.000002
0.038100,	0.001144,	0.000002
0.041148,	0.001160,	0.000002
0.044196,	0.001176,	0.000002
0.047244,	0.001193,	0.000002
0.050292,	0.001209,	0.000002
0.053340,	0.001226,	0.000002
0.056388,	0.001243,	0.000003
0.059436,	0.001260,	0.000003
0.062484,	0.001277,	0.000003
0.065532,	0.001294,	0.000003
0.068580,	0.001312,	0.000003
0.071628,	0.001329,	0.000003
0.074676,	0.001346,	0.000003
0.077724,	0.001364,	0.000003
0.080772,	0.001381,	0.000003
0.083820,	0.001399,	0.000003
0.086868,	0.001416,	0.000003
0.089916,	0.001434,	0.000003
0.092964,	0.001451,	0.000003
0.096012,	0.001468,	0.000003
0.099060,	0.001486,	0.000003
0.102108,	0.001503,	0.000003
0.105156,	0.001520,	0.000003
0.108204,	0.001538,	0.000003
0.111252,	0.001555,	0.000003
0.114300,	0.001572,	0.000003
0.117348,	0.001589,	0.000003
0.120396,	0.001606,	0.000003
0.123444,	0.001622,	0.000003
0.126492,	0.001639,	0.000003
0.129540,	0.001655,	0.000003
0.132588,	0.001672,	0.000003
0.135636,	0.001688,	0.000003
0.138684,	0.001704,	0.000003
0.141732,	0.001720,	0.000003
0.144780,	0.001736,	0.000004
0.147828,	0.001752,	0.000004
0.150876,	0.001767,	0.000004
0.153924,	0.001783,	0.000004
0.156972,	0.001798,	0.000004
0.160020,	0.001813,	0.000004
0.163068,	0.001827,	0.000004
0.166116,	0.001842,	0.000004
0.169164,	0.001856,	0.000004
0.172212,	0.001871,	0.000004
0.175260,	0.001884,	0.000004
0.178308,	0.001898,	0.000004
0.181356,	0.001912,	0.000004
0.184404,	0.001925,	0.000004
0.187452,	0.001938,	0.000004
0.190500,	0.001951,	0.000004
0.193548,	0.001963,	0.000004
0.196596,	0.001975,	0.000004
0.199644,	0.001987,	0.000004
0.202692,	0.001999,	0.000004
0.205740,	0.002010,	0.000004
0.208788,	0.002022,	0.000004
0.211836,	0.002032,	0.000004
0.214884,	0.002043,	0.000004
0.217932,	0.002053,	0.000004
0.220980,	0.002063,	0.000004
0.224028,	0.002073,	0.000004
0.227076,	0.002082,	0.000004
0.230124,	0.002091,	0.000004
0.233172,	0.002100,	0.000004
0.236220,	0.002108,	0.000004
0.239268,	0.002117,	0.000004
0.242316,	0.002125,	0.000004
0.245364,	0.002133,	0.000004
0.248412,	0.002140,	0.000004
0.251460,	0.002148,	0.000004
0.254508,	0.002155,	0.000004
0.257556,	0.002162,	0.000004
0.260604,	0.002168,	0.000004
0.263652,	0.002175,	0.000004
0.266700,	0.002181,	0.000004
0.269748,	0.002187,	0.000004
0.272796,	0.002193,	0.000004
0.275844,	0.002199,	0.000004
0.278892,	0.002204,	0.000004
0.281940,	0.002210,	0.000004
0.284988,	0.002215,	0.000005
0.288036,	0.002220,	0.000005
0.291084,	0.002225,	0.000005
0.294132,	0.002229,	0.000005
0.297180,	0.002234,	0.000005
0.300228,	0.002238,	0.000005
0.303276,	0.002242,	0.000005
0.001524,	0.001644,	0.000002
0.004572,	0.001654,	0.000002
0.007620,	0.001671,	0.000002
0.010668,	0.001691,	0.000002
0.013716,	0.001712,	0.000002
0.016764,	0.001734,	0.000002
0.019812,	0.001756,	0.000002
0.022860,	0.001780,	0.000002
0.025908,	0.001804,	0.000002
0.028956,	0.001829,	0.000002
0.032004,	0.001854,	0.000002
0.035052,	0.001880,	0.000002
0.038100,	0.001907,	0.000002
0.041148,	0.001933,	0.000002
0.044196,	0.001960,	0.000002
0.047244,	0.001988,	0.000002
0.050292,	0.002015,	0.000002
0.053340,	0.002043,	0.000002
0.056388,	0.002072,	0.000003
0.059436,	0.002100,	0.000003
0.062484,	0.002129,	0.000003
0.065532,	0.002157,	0.000003
0.068580,	0.002186,	0.000003
0.071628,	0.002215,	0.000003
0.074676,	0.002244,	0.000003
0.077724,	0.002273,	0.000003
0.080772,	0.002302,	0.000003
0.083820,	0.002331,	0.000003
0.086868,	0.002360,	0.000003
0.089916,	0.002389,	0.000003
0.092964,	0.002418,	0.000003
0.096012,	0.002447,	0.000003
0.099060,	0.002476,	0.000003
0.102108,	0.002505,	0.000003
0.105156,	0.002534,	0.000003
0.108204,	0.002563,	0.000003
0.111252,	0.002591,	0.000003
0.114300,	0.002620,	0.000003
0.117348,	0.002648,	0.000003
0.120396,	0.002676,	0.000003
0.123444,	0.002704,	0.000003
0.126492,	0.002732,	0.000003
0.129540,	0.002759,	0.000003
0.132588,	0.002786,	0.000003
0.135636,	0.002814,	0.000003
0.138684,	0.002840,	0.000003
0.141732,	0.002867,	0.000003
0.144780,	0.002893,	0.000004
0.147828,	0.002920,	0.000004
0.150876,	0.002945,	0.000004
0.153924,	0.002971,	0.000004
0.156972,	0.002996,	0.000004
0.160020,	0.003021,	0.000004
0.163068,	0.003046,	0.000004
0.166116,	0.003070,	0.000004
0.169164,	0.003094,	0.000004
0.172212,	0.003118,	0.000004
0.175260,	0.003141,	0.000004
0.178308,	0.003164,	0.000004
0.181356,	0.003186,	0.000004
0.184404,	0.003208,	0.000004
0.187452,	0.003230,	0.000004
0.190500,	0.003251,	0.000004
0.193548,	0.003272,	0.000004
0.196596,	0.003292,	0.000004
0.199644,	0.003312,	0.000004
0.202692,	0.003332,	0.000004
0.205740,	0.003351,	0.000004
0.208788,	0.003369,	0.000004
0.211836,	0.003387,	0.000004
0.214884,	0.003405,	0.000004
0.217932,	0.003422,	0.000004
0.220980,	0.003438,	0.000004
0.224028,	0.003454,	0.000004
0.227076,	0.003470,	0.000004
0.230124,	0.003485,	0.000004
0.233172,	0.003500,	0.000004
0.236220,	0.003514,	0.000004
0.239268,	0.003528,	0.000004
0.242316,	0.003541,	0.000004
0.245364,	0.003555,	0.000004
0.248412,	0.003567,	0.000004
0.251460,	0.003579,	0.000004
0.254508,	0.003591,	0.000004
0.257556,	0.003603,	0.000004
0.260604,	0.003614,	0.000004
0.263652,	0.003625,	0.000004
0.266700,	0.003635,	0.000004
0.269748,	0.003646,	0.000004
0.272796,	0.003655,	0.000004
0.275844,	0.003665,	0.000004
0.278892,	0.003674,	0.000004
0.281940,	0.003683,	0.000004
0.284988,	0.003692,	0.000005
0.288036,	0.003700,	0.000005
0.291084,	0.003708,	0.000005
0.294132,	0.003716,	0.000005
0.297180,	0.003723,	0.000005
0.300228,	0.003730,	0.000005
0.303276,	0.003737,	0.000005
0.001524,	0.002302,	0.000002
0.004572,	0.002315,	0.000002
0.007620,	0.002340,	0.000002
0.010668,	0.002367,	0.000002
0.013716,	0.002396,	0.000002
0.016764,	0.002427,	0.000002
0.019812,	0.002459,	0.000002
0.022860,	0.002492,	0.000002
0.025908,	0.002526,	0.000002
0.028956,	0.002560,	0.000002
0.032004,	0.002596,	0.000002
0.035052,	0.002632,	0.000002
0.038100,	0.002669,	0.000002
0.041148,	0.002707,	0.000002
0.044196,	0.002744,	0.000002
0.047244,	0.002783,	0.000002
0.050292,	0.002822,	0.000002
0.053340,	0.002861,	0.000002
0.056388,	0.002900,	0.000003
0.059436,	0.002940,	0.000003
0.062484,	0.002980,	0.000003
0.065532,	0.003020,	0.000003
0.068580,	0.003060,	0.000003
0.071628,	0.003101,	0.000003
0.074676,	0.003142,	0.000003
0.077724,	0.003182,	0.000003
0.080772,	0.003223,	0.000003
0.083820,	0.003264,	0.000003
0.086868,	0.003304,	0.000003
0.089916,	0.003345,	0.000003
0.092964,	0.003386,	0.000003
0.096012,	0.003426,	0.000003
0.099060,	0.003467,	0.000003
0.102108,	0.003507,	0.000003
0.105156,	0.003548,	0.000003
0.108204,	0.003588,	0.000003
0.111252,	0.003628,	0.000003
0.114300,	0.003667,	0.000003
0.117348,	0.003707,	0.000003
0.120396,	0.003746,	0.000003
0.123444,	0.003785,	0.000003
0.126492,	0.003824,	0.000003
0.129540,	0.003863,	0.000003
0.132588,	0.003901,	0.000003
0.135636,	0.003939,	0.000003
0.138684,	0.003977,	0.000003
0.141732,	0.004014,	0.000003
0.144780,	0.004051,	0.000004
0.147828,	0.004087,	0.000004
0.150876,	0.004124,	0.000004
0.153924,	0.004159,	0.000004
0.156972,	0.004195,	0.000004
0.160020,	0.004230,	0.000004
0.163068,	0.004264,	0.000004
0.166116,	0.004298,	0.000004
0.169164,	0.004332,	0.000004
0.172212,	0.004365,	0.000004
0.175260,	0.004397,	0.000004
0.178308,	0.004429,	0.000004
0.181356,	0.004461,	0.000004
0.184404,	0.004491,	0.000004
0.187452,	0.004522,	0.000004
0.190500,	0.004551,	0.000004
0.193548,	0.004581,	0.000004
0.196596,	0.004609,	0.000004
0.199644,	0.004637,	0.000004
0.202692,	0.004664,	0.000004
0.205740,	0.004691,	0.000004
0.208788,	0.004717,	0.000004
0.211836,	0.004742,	0.000004
0.214884,	0.004767,	0.000004
0.217932,	0.004790,	0.000004
0.220980,	0.004814,	0.000004
0.224028,	0.004836,	0.000004
0.227076,	0.004858,	0.000004
0.230124,	0.004879,	0.000004
0.233172,	0.004900,	0.000004
0.236220,	0.004920,	0.000004
0.239268,	0.004939,	0.000004
0.242316,	0.004958,	0.000004
0.245364,	0.004976,	0.000004
0.248412,	0.004994,	0.000004
0.251460,	0.005011,	0.000004
0.254508,	0.005028,	0.000004
0.257556,	0.005044,	0.000004
0.260604,	0.005060,	0.000004
0.263652,	0.005075,	0.000004
0.266700,	0.005090,	0.000004
0.269748,	0.005104,	0.000004
0.272796,	0.005118,	0.000004
0.275844,	0.005131,	0.000004
0.278892,	0.005144,	0.000004
0.281940,	0.005156,	0.000004
0.284988,	0.005168,	0.000005
0.288036,	0.005180,	0.000005
0.291084,	0.005191,	0.000005
0.294132,	0.005202,	0.000005
0.297180,	0.005212,	0.000005
0.300228,	0.005222,	0.000005
0.303276,	0.005232,	0.000005
0.001524,	0.002960,	0.000002
0.004572,	0.002976,	0.000002
0.007620,	0.003008,	0.000002
0.010668,	0.003043,	0.000002
0.013716,	0.003081,	0.000002
0.016764,	0.003120,	0.000002
0.019812,	0.003161,	0.000002
0.022860,	0.003204,	0.000002
0.025908,	0.003247,	0.000002
0.028956,	0.003292,	0.000002
0.032004,	0.003338,	0.000002
0.035052,	0.003384,	0.000002
0.038100,	0.003432,	0.000002
0.041148,	0.003480,	0.000002
0.044196,	0.003529,	0.000002
0.047244,	0.003578,	0.000002
0.050292,	0.003628,	0.000002
0.053340,	0.003678,	0.000002
0.056388,	0.003729,	0.000003
0.059436,	0.003780,	0.000003
0.062484,	0.003831,	0.000003
0.065532,	0.003883,	0.000003
0.068580,	0.003935,	0.000003
0.071628,	0.003987,	0.000003
0.074676,	0.004039,	0.000003
0.077724,	0.004091,	0.000003
0.080772,	0.004144,	0.000003
0.083820,	0.004196,	0.000003
0.086868,	0.004248,	0.000003
0.089916,	0.004301,	0.000003
0.092964,	0.004353,	0.000003
0.096012,	0.004405,	0.000003
0.099060,	0.004457,	0.000003
0.102108,	0.004509,	0.000003
0.105156,	0.004561,	0.000003
0.108204,	0.004613,	0.000003
0.111252,	0.004664,	0.000003
0.114300,	0.004715,	0.000003
0.117348,	0.004766,	0.000003
0.120396,	0.004817,	0.000003
0.123444,	0.004867,	0.000003
0.126492,	0.004917,	0.000003
0.129540,	0.004966,	0.000003
0.132588,	0.005016,	0.000003
0.135636,	0.005064,	0.000003
0.138684,	0.005113,	0.000003
0.141732,	0.005161,	0.000003
0.144780,	0.005208,	0.000004
0.147828,	0.005255,	0.000004
0.150876,	0.005302,	0.000004
0.153924,	0.005348,	0.000004
0.156972,	0.005393,	0.000004
0.160020,	0.005438,	0.000004
0.163068,	0.005482,	0.000004
0.166116,	0.005526,	0.000004
0.169164,	0.005569,	0.000004
0.172212,	0.005612,	0.000004
0.175260,	0.005653,	0.000004
0.178308,	0.005695,	0.000004
0.181356,	0.005735,	0.000004
0.184404,	0.005775,	0.000004
0.187452,	0.005814,	0.000004
0.190500,	0.005852,	0.000004
0.193548,	0.005889,	0.000004
0.196596,	0.005926,	0.000004
0.199644,	0.005962,	0.000004
0.202692,	0.005997,	0.000004
0.205740,	0.006031,	0.000004
0.208788,	0.006065,	0.000004
0.211836,	0.006097,	0.000004
0.214884,	0.006129,	0.000004
0.217932,	0.006159,	0.000004
0.220980,	0.006189,	0.000004
0.224028,	0.006218,	0.000004
0.227076,	0.006246,	0.000004
0.230124,	0.006273,	0.000004
0.233172,	0.006300,	0.000004
0.236220,	0.006325,	0.000004
0.239268,	0.006350,	0.000004
0.242316,	0.006375,	0.000004
0.245364,	0.006398,	0.000004
0.248412,	0.006421,	0.000004
0.251460,	0.006443,	0.000004
0.254508,	0.006465,	0.000004
0.257556,	0.006485,	0.000004
0.260604,	0.006505,	0.000004
0.263652,	0.006525,	0.000004
0.266700,	0.006544,	0.000004
0.269748,	0.006562,	0.000004
0.272796,	0.006580,	0.000004
0.275844,	0.006597,	0.000004
0.278892,	0.006613,	0.000004
0.281940,	0.006629,	0.000004
0.284988,	0.006645,	0.000005
0.288036,	0.006660,	0.000005
0.291084,	0.006674,	0.000005
0.294132,	0.006688,	0.000005
0.297180,	0.006701,	0.000005
0.300228,	0.006714,	0.000005
0.303276,	0.006726,	0.000005
0.001524,	0.003618,	0.000002
0.004572,	0.003638,	0.000002
0.007620,	0.003676,	0.000002
0.010668,	0.003720,	0.000002
0.013716,	0.003766,	0.000002
0.016764,	0.003814,	0.000002
0.019812,	0.003864,	0.000002
0.022860,	0.003916,	0.000002
0.025908,	0.003969,	0.000002
0.028956,	0.004024,	0.000002
0.032004,	0.004079,	0.000002
0.035052,	0.004136,	0.000002
0.038100,	0.004194,	0.000002
0.041148,	0.004253,	0.000002
0.044196,	0.004313,	0.000002
0.047244,	0.004373,	0.000002
0.050292,	0.004434,	0.000002
0.053340,	0.004496,	0.000002
0.056388,	0.004558,	0.000003
0.059436,	0.004620,	0.000003
0.062484,	0.004683,	0.000003
0.065532,	0.004746,	0.000003
0.068580,	0.004809,	0.000003
0.071628,	0.004873,	0.000003
0.074676,	0.004937,	0.000003
0.077724,	0.005001,	0.000003
0.080772,	0.005065,	0.000003
0.083820,	0.005129,	0.000003
0.086868,	0.005193,	0.000003
0.089916,	0.005257,	0.000003
0.092964,	0.005320,	0.000003
0.096012,	0.005384,	0.000003
0.099060,	0.005448,	0.000003
0.102108,	0.005511,	0.000003
0.105156,	0.005575,	0.000003
0.108204,	0.005638,	0.000003
0.111252,	0.005701,	0.000003
0.114300,	0.005763,	0.000003
0.117348,	0.005825,	0.000003
0.120396,	0.005887,	0.000003
0.123444,	0.005948,	0.000003
0.126492,	0.006009,	0.000003
0.129540,	0.006070,	0.000003
0.132588,	0.006130,	0.000003
0.135636,	0.006190,	0.000003
0.138684,	0.006249,	0.000003
0.141732,	0.006307,	0.000003
0.144780,	0.006366,	0.000004
0.147828,	0.006423,	0.000004
0.150876,	0.006480,	0.000004
0.153924,	0.006536,	0.000004
0.156972,	0.006592,	0.000004
0.160020,	0.006647,	0.000004
0.163068,	0.006701,	0.000004
0.166116,	0.006754,	0.000004
0.169164,	0.006807,	0.000004
0.172212,	0.006859,	0.000004
0.175260,	0.006910,	0.000004
0.178308,	0.006960,	0.000004
0.181356,	0.007010,	0.000004
0.184404,	0.007058,	0.000004
0.187452,	0.007106,	0.000004
0.190500,	0.007152,	0.000004
0.193548,	0.007198,	0.000004
0.196596,	0.007243,	0.000004
0.199644,	0.007287,	0.000004
0.202692,	0.007330,	0.000004
0.205740,	0.007371,	0.000004
0.208788,	0.007412,	0.000004
0.211836,	0.007452,	0.000004
0.214884,	0.007490,	0.000004
0.217932,	0.007528,	0.000004
0.220980,	0.007564,	0.000004
0.224028,	0.007600,	0.000004
0.227076,	0.007634,	0.000004
0.230124,	0.007667,	0.000004
0.233172,	0.007700,	0.000004
0.236220,	0.007731,	0.000004
0.239268,	0.007762,	0.000004
0.242316,	0.007791,	0.000004
0.245364,	0.007820,	0.000004
0.248412,	0.007848,	0.000004
0.251460,	0.007875,	0.000004
0.254508,	0.007901,	0.000004
0.257556,	0.007927,	0.000004
0.260604,	0.007951,	0.000004
0.263652,	0.007975,	0.000004
0.266700,	0.007998,	0.000004
0.269748,	0.008020,	0.000004
0.272796,	0.008042,	0.000004
0.275844,	0.008063,	0.000004
0.278892,	0.008083,	0.000004
0.281940,	0.008103,	0.000004
0.284988,	0.008121,	0.000005
0.288036,	0.008140,	0.000005
0.291084,	0.008157,	0.000005
0.294132,	0.008174,	0.000005
0.297180,	0.008190,	0.000005
0.300228,	0.008206,	0.000005
0.303276,	0.008221,	0.000005
0.001524,	0.004276,	0.000002
0.004572,	0.004299,	0.000002
0.007620,	0.004345,	0.000002
0.010668,	0.004396,	0.000002
0.013716,	0.004450,	0.000002
0.016764,	0.004507,	0.000002
0.019812,	0.004566,	0.000002
0.022860,	0.004628,	0.000002
0.025908,	0.004691,	0.000002
0.028956,	0.004755,	0.000002
0.032004,	0.004821,	0.000002
0.035052,	0.004888,	0.000002
0.038100,	0.004957,	0.000002
0.041148,	0.005026,	0.000002
0.044196,	0.005097,	0.000002
0.047244,	0.005168,	0.000002
0.050292,	0.005240,	0.000002
0.053340,	0.005313,	0.000002
0.056388,	0.005386,	0.000003
0.059436,	0.005460,	0.000003
0.062484,	0.005534,	0.000003
0.065532,	0.005609,	0.000003
0.068580,	0.005684,	0.000003
0.071628,	0.005759,	0.000003
0.074676,	0.005834,	0.000003
0.077724,	0.005910,	0.000003
0.080772,	0.005985,	0.000003
0.083820,	0.006061,	0.000003
0.086868,	0.006137,	0.000003
0.089916,	0.006212,	0.000003
0.092964,	0.006288,	0.000003
0.096012,	0.006363,	0.000003
0.099060,	0.006438,	0.000003
0.102108,	0.006514,	0.000003
0.105156,	0.006588,	0.000003
0.108204,	0.006663,	0.000003
0.111252,	0.006737,	0.000003
0.114300,	0.006811,	0.000003
0.117348,	0.006884,	0.000003
0.120396,	0.006957,	0.000003
0.123444,	0.007030,	0.000003
0.126492,	0.007102,	0.000003
0.129540,	0.007174,	0.000003
0.132588,	0.007245,	0.000003
0.135636,	0.007315,	0.000003
0.138684,	0.007385,	0.000003
0.141732,	0.007454,	0.000003
0.144780,	0.007523,	0.000004
0.147828,	0.007591,	0.000004
0.150876,	0.007658,	0.000004
0.153924,	0.007724,	0.000004
0.156972,	0.007790,	0.000004
0.160020,	0.007855,	0.000004
0.163068,	0.007919,	0.000004
0.166116,	0.007982,	0.000004
0.169164,	0.008044,	0.000004
0.172212,	0.008106,	0.000004
0.175260,	0.008166,	0.000004
0.178308,	0.008226,	0.000004
0.181356,	0.008284,	0.000004
0.184404,	0.008341,	0.000004
0.187452,	0.008398,	0.000004
0.190500,	0.008453,	0.000004
0.193548,	0.008507,	0.000004
0.196596,	0.008560,	0.000004
0.199644,	0.008612,	0.000004
0.202692,	0.008662,	0.000004
0.205740,	0.008712,	0.000004
0.208788,	0.008760,	0.000004
0.211836,	0.008807,	0.000004
0.214884,	0.008852,	0.000004
0.217932,	0.008897,	0.000004
0.220980,	0.008940,	0.000004
0.224028,	0.008981,	0.000004
0.227076,	0.009022,	0.000004
0.230124,	0.009061,	0.000004
0.233172,	0.009100,	0.000004
0.236220,	0.009137,	0.000004
0.239268,	0.009173,	0.000004
0.242316,	0.009208,	0.000004
0.245364,	0.009242,	0.000004
0.248412,	0.009275,	0.000004
0.251460,	0.009307,	0.000004
0.254508,	0.009338,	0.000004
0.257556,	0.009368,	0.000004
0.260604,	0.009397,	0.000004
0.263652,	0.009425,	0.000004
0.266700,	0.009452,	0.000004
0.269748,	0.009479,	0.000004
0.272796,	0.009504,	0.000004
0.275844,	0.009529,	0.000004
0.278892,	0.009553,	0.000004
0.281940,	0.009576,	0.000004
0.284988,	0.009598,	0.000005
0.288036,	0.009620,	0.000005
0.291084,	0.009640,	0.000005
0.294132,	0.009660,	0.000005
0.297180,	0.009680,	0.000005
0.300228,	0.009698,	0.000005
0.303276,	0.009716,	0.000005
0.001524,	0.004933,	0.000002
0.004572,	0.004961,	0.000002
0.007620,	0.005013,	0.000002
0.010668,	0.005072,	0.000002
0.013716,	0.005135,	0.000002
0.016764,	0.005201,	0.000002
0.019812,	0.005269,	0.000002
0.022860,	0.005340,	0.000002
0.025908,	0.005412,	0.000002
0.028956,	0.005487,	0.000002
0.032004,	0.005563,	0.000002
0.035052,	0.005641,	0.000002
0.038100,	0.005720,	0.000002
0.041148,	0.005800,	0.000002
0.044196,	0.005881,	0.000002
0.047244,	0.005963,	0.000002
0.050292,	0.006046,	0.000002
0.053340,	0.006130,	0.000002
0.056388,	0.006215,	0.000003
0.059436,	0.006300,	0.000003
0.062484,	0.006386,	0.000003
0.065532,	0.006472,	0.000003
0.068580,	0.006558,	0.000003
0.071628,	0.006645,	0.000003
0.074676,	0.006732,	0.000003
0.077724,	0.006819,	0.000003
0.080772,	0.006906,	0.000003
0.083820,	0.006993,	0.000003
0.086868,	0.007081,	0.000003
0.089916,	0.007168,	0.000003
0.092964,	0.007255,	0.000003
0.096012,	0.007342,	0.000003
0.099060,	0.007429,	0.000003
0.102108,	0.007516,	0.000003
0.105156,	0.007602,	0.000003
0.108204,	0.007688,	0.000003
0.111252,	0.007773,	0.000003
0.114300,	0.007859,	0.000003
0.117348,	0.007943,	0.000003
0.120396,	0.008028,	0.000003
0.123444,	0.008111,	0.000003
0.126492,	0.008195,	0.000003
0.129540,	0.008277,	0.000003
0.132588,	0.008359,	0.000003
0.135636,	0.008441,	0.000003
0.138684,	0.008521,	0.000003
0.141732,	0.008601,	0.000003
0.144780,	0.008680,	0.000004
0.147828,	0.008759,	0.000004
0.150876,	0.008836,	0.000004
0.153924,	0.008913,	0.000004
0.156972,	0.008989,	0.000004
0.160020,	0.009063,	0.000004
0.163068,	0.009137,	0.000004
0.166116,	0.009210,	0.000004
0.169164,	0.009282,	0.000004
0.172212,	0.009353,	0.000004
0.175260,	0.009422,	0.000004
0.178308,	0.009491,	0.000004
0.181356,	0.009558,	0.000004
0.184404,	0.009625,	0.000004
0.187452,	0.009690,	0.000004
0.190500,	0.009753,	0.000004
0.193548,	0.009816,	0.000004
0.196596,	0.009877,	0.000004
0.199644,	0.009937,	0.000004
0.202692,	0.009995,	0.000004
0.205740,	0.010052,	0.000004
0.208788,	0.010108,	0.000004
0.211836,	0.010162,	0.000004
0.214884,	0.010214,	0.000004
0.217932,	0.010265,	0.000004
0.220980,	0.010315,	0.000004
0.224028,	0.010363,	0.000004
0.227076,	0.010410,	0.000004
0.230124,	0.010456,	0.000004
0.233172,	0.010500,	0.000004
0.236220,	0.010542,	0.000004
0.239268,	0.010584,	0.000004
0.242316,	0.010624,	0.000004
0.245364,	0.010664,	0.000004
0.248412,	0.010702,	0.000004
0.251460,	0.010738,	0.000004
0.254508,	0.010774,	0.000004
0.257556,	0.010809,	0.000004
0.260604,	0.010842,	0.000004
0.263652,	0.010875,	0.000004
0.266700,	0.010906,	0.000004
0.269748,	0.010937,	0.000004
0.272796,	0.010966,	0.000004
0.275844,	0.010995,	0.000004
0.278892,	0.011022,	0.000004
0.281940,	0.011049,	0.000004
0.284988,	0.011075,	0.000005
0.288036,	0.011099,	0.000005
0.291084,	0.011123,	0.000005
0.294132,	0.011147,	0.000005
0.297180,	0.011169,	0.000005
0.300228,	0.011190,	0.000005
0.303276,	0.011211,	0.000005
0.001524,	0.005591,	0.000002
0.004572,	0.005622,	0.000002
0.007620,	0.005682,	0.000002
0.010668,	0.005749,	0.000002
0.013716,	0.005820,	0.000002
0.016764,	0.005894,	0.000002
0.019812,	0.005972,	0.000002
0.022860,	0.006052,	0.000002
0.025908,	0.006134,	0.000002
0.028956,	0.006218,	0.000002
0.032004,	0.006305,	0.000002
0.035052,	0.006393,	0.000002
0.038100,	0.006482,	0.000002
0.041148,	0.006573,	0.000002
0.044196,	0.006665,	0.000002
0.047244,	0.006758,	0.000002
0.050292,	0.006853,	0.000002
0.053340,	0.006948,	0.000002
0.056388,	0.007043,	0.000003
0.059436,	0.007140,	0.000003
0.062484,	0.007237,	0.000003
0.065532,	0.007335,	0.000003
0.068580,	0.007433,	0.000003
0.071628,	0.007531,	0.000003
0.074676,	0.007629,	0.000003
0.077724,	0.007728,	0.000003
0.080772,	0.007827,	0.000003
0.083820,	0.007926,	0.000003
0.086868,	0.008025,	0.000003
0.089916,	0.008124,	0.000003
0.092964,	0.008223,	0.000003
0.096012,	0.008321,	0.000003
0.099060,	0.008420,	0.000003
0.102108,	0.008518,	0.000003
0.105156,	0.008615,	0.000003
0.108204,	0.008713,	0.000003
0.111252,	0.008810,	0.000003
0.114300,	0.008906,	0.000003
0.117348,	0.009002,	0.000003
0.120396,	0.009098,	0.000003
0.123444,	0.009193,	0.000003
0.126492,	0.009287,	0.000003
0.129540,	0.009381,	0.000003
0.132588,	0.009474,	0.000003
0.135636,	0.009566,	0.000003
0.138684,	0.009657,	0.000003
0.141732,	0.009748,	0.000003
0.144780,	0.009838,	0.000004
0.147828,	0.009926,	0.000004
0.150876,	0.010014,	0.000004
0.153924,	0.010101,	0.000004
0.156972,	0.010187,	0.000004
0.160020,	0.010272,	0.000004
0.163068,	0.010356,	0.000004
0.166116,	0.010438,	0.000004
0.169164,	0.010520,	0.000004
0.172212,	0.010600,	0.000004
0.175260,	0.010679,	0.000004
0.178308,	0.010757,	0.000004
0.181356,	0.010833,	0.000004
0.184404,	0.010908,	0.000004
0.187452,	0.010981,	0.000004
0.190500,	0.011054,	0.000004
0.193548,	0.011124,	0.000004
0.196596,	0.011194,	0.000004
0.199644,	0.011261,	0.000004
0.202692,	0.011328,	0.000004
0.205740,	0.011392,	0.000004
0.208788,	0.011455,	0.000004
0.211836,	0.011516,	0.000004
0.214884,	0.011576,	0.000004
0.217932,	0.011634,	0.000004
0.220980,	0.011690,	0.000004
0.224028,	0.011745,	0.000004
0.227076,	0.011798,	0.000004
0.230124,	0.011850,	0.000004
0.233172,	0.011900,	0.000004
0.236220,	0.011948,	0.000004
0.239268,	0.011995,	0.000004
0.242316,	0.012041,	0.000004
0.245364,	0.012085,	0.000004
0.248412,	0.012128,	0.000004
0.251460,	0.012170,	0.000004
0.254508,	0.012211,	0.000004
0.257556,	0.012250,	0.000004
0.260604,	0.012288,	0.000004
0.263652,	0.012325,	0.000004
0.266700,	0.012361,	0.000004
0.269748,	0.012395,	0.000004
0.272796,	0.012428,	0.000004
0.275844,	0.012461,	0.000004
0.278892,	0.012492,	0.000004
0.281940,	0.012522,	0.000004
0.284988,	0.012551,	0.000005
0.288036,	0.012579,	0.000005
0.291084,	0.012606,	0.000005
0.294132,	0.012633,	0.000005
0.297180,	0.012658,	0.000005
0.300228,	0.012682,	0.000005
0.303276,	0.012705,	0.000005
0.001524,	0.006249,	0.000002
0.004572,	0.006284,	0.000002
0.007620,	0.006350,	0.000002
0.010668,	0.006425,	0.000002
0.013716,	0.006504,	0.000002
0.016764,	0.006588,	0.000002
0.019812,	0.006674,	0.000002
0.022860,	0.006763,	0.000002
0.025908,	0.006856,	0.000002
0.028956,	0.006950,	0.000002
0.032004,	0.007046,	0.000002
0.035052,	0.007145,	0.000002
0.038100,	0.007245,	0.000002
0.041148,	0.007346,	0.000002
0.044196,	0.007449,	0.000002
0.047244,	0.007554,	0.000002
0.050292,	0.007659,	0.000002
0.053340,	0.007765,	0.000002
0.056388,	0.007872,	0.000003
0.059436,	0.007980,	0.000003
0.062484,	0.008088,	0.000003
0.065532,	0.008198,	0.000003
0.068580,	0.008307,	0.000003
0.071628,	0.008417,	0.000003
0.074676,	0.008527,	0.000003
0.077724,	0.008637,	0.000003
0.080772,	0.008748,	0.000003
0.083820,	0.008858,	0.000003
0.086868,	0.008969,	0.000003
0.089916,	0.009079,	0.000003
0.092964,	0.009190,	0.000003
0.096012,	0.009300,	0.000003
0.099060,	0.009410,	0.000003
0.102108,	0.009520,	0.000003
0.105156,	0.009629,	0.000003
0.108204,	0.009738,	0.000003
0.111252,	0.009846,	0.000003
0.114300,	0.009954,	0.000003
0.117348,	0.010062,	0.000003
0.120396,	0.010168,	0.000003
0.123444,	0.010274,	0.000003
0.126492,	0.010380,	0.000003
0.129540,	0.010484,	0.000003
0.132588,	0.010588,	0.000003
0.135636,	0.010691,	0.000003
0.138684,	0.010793,	0.000003
0.141732,	0.010895,	0.000003
0.144780,	0.010995,	0.000004
0.147828,	0.011094,	0.000004
0.150876,	0.011192,	0.000004
0.153924,	0.011290,	0.000004
0.156972,	0.011386,	0.000004
0.160020,	0.011480,	0.000004
0.163068,	0.011574,	0.000004
0.166116,	0.011666,	0.000004
0.169164,	0.011757,	0.000004
0.172212,	0.011847,	0.000004
0.175260,	0.011935,	0.000004
0.178308,	0.012022,	0.000004
0.181356,	0.012107,	0.000004
0.184404,	0.012191,	0.000004
0.187452,	0.012273,	0.000004
0.190500,	0.012354,	0.000004
0.193548,	0.012433,	0.000004
0.196596,	0.012511,	0.000004
0.199644,	0.012586,	0.000004
0.202692,	0.012660,	0.000004
0.205740,	0.012733,	0.000004
0.208788,	0.012803,	0.000004
0.211836,	0.012871,	0.000004
0.214884,	0.012938,	0.000004
0.217932,	0.013003,	0.000004
0.220980,	0.013066,	0.000004
0.224028,	0.013127,	0.000004
0.227076,	0.013186,	0.000004
0.230124,	0.013244,	0.000004
0.233172,	0.013300,	0.000004
0.236220,	0.013354,	0.000004
0.239268,	0.013406,	0.000004
0.242316,	0.013458,	0.000004
0.245364,	0.013507,	0.000004
0.248412,	0.013555,	0.000004
0.251460,	0.013602,	0.000004
0.254508,	0.013647,	0.000004
0.257556,	0.013691,	0.000004
0.260604,	0.013734,	0.000004
0.263652,	0.013775,	0.000004
0.266700,	0.013815,	0.000004
0.269748,	0.013853,	0.000004
0.272796,	0.013891,	0.000004
0.275844,	0.013927,	0.000004
0.278892,	0.013962,	0.000004
0.281940,	0.013995,	0.000004
0.284988,	0.014028,	0.000005
0.288036,	0.014059,	0.000005
0.291084,	0.014090,	0.000005
0.294132,	0.014119,	0.000005
0.297180,	0.014147,	0.000005
0.300228,	0.014174,	0.000005
0.303276,	0.014200,	0.000005
0.001524,	0.006907,	0.000002
0.004572,	0.006945,	0.000002
0.007620,	0.007019,	0.000002
0.010668,	0.007101,	0.000002
0.013716,	0.007189,	0.000002
0.016764,	0.007281,	0.000002
0.019812,	0.007377,	0.000002
0.022860,	0.007475,	0.000002
0.025908,	0.007577,	0.000002
0.028956,	0.007681,	0.000002
0.032004,	0.007788,	0.000002
0.035052,	0.007897,	0.000002
0.038100,	0.008007,	0.000002
0.041148,	0.008120,	0.000002
0.044196,	0.008233,	0.000002
0.047244,	0.008349,	0.000002
0.050292,	0.008465,	0.000002
0.053340,	0.008582,	0.000002
0.056388,	0.008701,	0.000003
0.059436,	0.008820,	0.000003
0.062484,	0.008940,	0.000003
0.065532,	0.009060,	0.000003
0.068580,	0.009181,	0.000003
0.071628,	0.009303,	0.000003
0.074676,	0.009425,	0.000003
0.077724,	0.009547,	0.000003
0.080772,	0.009669,	0.000003
0.083820,	0.009791,	0.000003
0.086868,	0.009913,	0.000003
0.089916,	0.010035,	0.000003
0.092964,	0.010157,	0.000003