TITLE = "MeshVolumeStats"
VARIABLES = "X", "Y", "VOL"
ZONE I=300, J=150, DATAPACKING=POINT
0.000892,	0.000141,	0.000001
0.002676,	0.000141,	0.000001
0.004460,	0.000142,	0.000001
0.006244,	0.000142,	0.000001
0.008028,	0.000143,	0.000001
0.009812,	0.000144,	0.000001
0.011596,	0.000144,	0.000001
0.013379,	0.000145,	0.000001
0.015163,	0.000146,	0.000001
0.016947,	0.000147,	0.000001
0.018731,	0.000148,	0.000001
0.020515,	0.000149,	0.000001
0.022299,	0.000149,	0.000001
0.024083,	0.000150,	0.000001
0.025867,	0.000151,	0.000001
0.027651,	0.000152,	0.000001
0.029435,	0.000153,	0.000001
0.031219,	0.000154,	0.000001
0.033003,	0.000155,	0.000001
0.034787,	0.000156,	0.000001
0.036570,	0.000157,	0.000001
0.038354,	0.000158,	0.000001
0.040138,	0.000159,	0.000001
0.041922,	0.000160,	0.000001
0.043706,	0.000161,	0.000001
0.045490,	0.000162,	0.000001
0.047274,	0.000163,	0.000001
0.049058,	0.000164,	0.000001
0.050842,	0.000165,	0.000001
0.052626,	0.000166,	0.000001
0.054410,	0.000167,	0.000001
0.056194,	0.000168,	0.000001
0.057978,	0.000169,	0.000001
0.059762,	0.000170,	0.000001
0.061545,	0.000171,	0.000001
0.063329,	0.000172,	0.000001
0.065113,	0.000173,	0.000001
0.066897,	0.000175,	0.000001
0.068681,	0.000176,	0.000001
0.070465,	0.000177,	0.000001
0.072249,	0.000178,	0.000001
0.074033,	0.000179,	0.000001
0.075817,	0.000180,	0.000001
0.077601,	0.000181,	0.000001
0.079385,	0.000182,	0.000001
0.081169,	0.000183,	0.000001
0.082953,	0.000185,	0.000001
0.084737,	0.000186,	0.000001
0.086520,	0.000187,	0.000001
0.088304,	0.000188,	0.000001
0.090088,	0.000189,	0.000001
0.091872,	0.000190,	0.000001
0.093656,	0.000191,	0.000001
0.095440,	0.000192,	0.000001
0.097224,	0.000194,	0.000001
0.099008,	0.000195,	0.000001
0.100792,	0.000196,	0.000001
0.102576,	0.000197,	0.000001
0.104360,	0.000198,	0.000001
0.106144,	0.000199,	0.000001
0.107928,	0.000200,	0.000001
0.109711,	0.000201,	0.000001
0.111495,	0.000203,	0.000001
0.113279,	0.000204,	0.000001
0.115063,	0.000205,	0.000001
0.116847,	0.000206,	0.000001
0.118631,	0.000207,	0.000001
0.120415,	0.000208,	0.000001
0.122199,	0.000209,	0.000001
0.123983,	0.000211,	0.000001
0.125767,	0.000212,	0.000001
0.127551,	0.000213,	0.000001
0.129335,	0.000214,	0.000001
0.131119,	0.000215,	0.000001
0.132903,	0.000216,	0.000001
0.134686,	0.000217,	0.000001
0.136470,	0.000218,	0.000001
0.138254,	0.000220,	0.000001
0.140038,	0.000221,	0.000001
0.141822,	0.000222,	0.000001
0.143606,	0.000223,	0.000001
0.145390,	0.000224,	0.000001
0.147174,	0.000225,	0.000001
0.148958,	0.000226,	0.000001
0.150742,	0.000227,	0.000001
0.152526,	0.000228,	0.000001
0.154310,	0.000230,	0.000001
0.156094,	0.000231,	0.000001
0.157878,	0.000232,	0.000001
0.159661,	0.000233,	0.000001
0.161445,	0.000234,	0.000001
0.163229,	0.000235,	0.000001
0.165013,	0.000236,	0.000001
0.166797,	0.000237,	0.000001
0.168581,	0.000238,	0.000001
0.170365,	0.000239,	0.000001
0.172149,	0.000240,	0.000001
0.173933,	0.000241,	0.000001
0.175717,	0.000242,	0.000001
0.177501,	0.000243,	0.000001
0.179285,	0.000244,	0.000001
0.181069,	0.000246,	0.000001
0.182852,	0.000247,	0.000001
0.184636,	0.000248,	0.000001
0.186420,	0.000249,	0.000001
0.188204,	0.000250,	0.000001
0.189988,	0.000251,	0.000001
0.191772,	0.000252,	0.000001
0.193556,	0.000253,	0.000001
0.195340,	0.000254,	0.000001
0.197124,	0.000255,	0.000001
0.198908,	0.000256,	0.000001
0.200692,	0.000257,	0.000001
0.202476,	0.000258,	0.000001
0.204260,	0.000259,	0.000001
0.206044,	0.000260,	0.000001
0.207827,	0.000261,	0.000001
0.209611,	0.000262,	0.000001
0.211395,	0.000262,	0.000001
0.213179,	0.000263,	0.000001
0.214963,	0.000264,	0.000001
0.216747,	0.000265,	0.000001
0.218531,	0.000266,	0.000001
0.220315,	0.000267,	0.000001
0.222099,	0.000268,	0.000001
0.223883,	0.000269,	0.000001
0.225667,	0.000270,	0.000001
0.227451,	0.000271,	0.000001
0.229235,	0.000272,	0.000001
0.231019,	0.000273,	0.000001
0.232802,	0.000273,	0.000001
0.234586,	0.000274,	0.000001
0.236370,	0.000275,	0.000001
0.238154,	0.000276,	0.000001
0.239938,	0.000277,	0.000001
0.241722,	0.000278,	0.000001
0.243506,	0.000279,	0.000001
0.245290,	0.000279,	0.000001
0.247074,	0.000280,	0.000001
0.248858,	0.000281,	0.000001
0.250642,	0.000282,	0.000001
0.252426,	0.000283,	0.000001
0.254210,	0.000283,	0.000001
0.255993,	0.000284,	0.000001
0.257777,	0.000285,	0.000001
0.259561,	0.000286,	0.000001
0.261345,	0.000286,	0.000001
0.263129,	0.000287,	0.000001
0.264913,	0.000288,	0.000001
0.266697,	0.000289,	0.000001
0.268481,	0.000289,	0.000001
0.270265,	0.000290,	0.000001
0.272049,	0.000291,	0.000001
0.273833,	0.000292,	0.000001
0.275617,	0.000292,	0.000001
0.277401,	0.000293,	0.000001
0.279185,	0.000294,	0.000001
0.280968,	0.000294,	0.000001
0.282752,	0.000295,	0.000001
0.284536,	0.000296,	0.000001
0.286320,	0.000296,	0.000001
0.288104,	0.000297,	0.000001
0.289888,	0.000297,	0.000001
0.291672,	0.000298,	0.000001
0.293456,	0.000299,	0.000001
0.295240,	0.000299,	0.000001
0.297024,	0.000300,	0.000001
0.298808,	0.000300,	0.000001
0.300592,	0.000301,	0.000001
0.302376,	0.000301,	0.000001
0.304159,	0.000302,	0.000001
0.305943,	0.000303,	0.000001
0.307727,	0.000303,	0.000001
0.309511,	0.000304,	0.000001
0.311295,	0.000304,	0.000001
0.313079,	0.000305,	0.000001
0.314863,	0.000305,	0.000001
0.316647,	0.000306,	0.000001
0.318431,	0.000306,	0.000001
0.320215,	0.000307,	0.000001
0.321999,	0.000307,	0.000001
0.323783,	0.000308,	0.000001
0.325567,	0.000308,	0.000001
0.327351,	0.000309,	0.000001
0.329134,	0.000309,	0.000001
0.330918,	0.000310,	0.000001
0.332702,	0.000310,	0.000001
0.334486,	0.000310,	0.000001
0.336270,	0.000311,	0.000001
0.338054,	0.000311,	0.000001
0.339838,	0.000312,	0.000001
0.341622,	0.000312,	0.000001
0.343406,	0.000313,	0.000001
0.345190,	0.000313,	0.000001
0.346974,	0.000313,	0.000001
0.348758,	0.000314,	0.000001
0.350542,	0.000314,	0.000001
0.352326,	0.000314,	0.000001
0.354109,	0.000315,	0.000001
0.355893,	0.000315,	0.000001
0.357677,	0.000316,	0.000001
0.359461,	0.000316,	0.000001
0.361245,	0.000316,	0.000001
0.363029,	0.000317,	0.000001
0.364813,	0.000317,	0.000001
0.366597,	0.000317,	0.000001
0.368381,	0.000318,	0.000001
0.370165,	0.000318,	0.000001
0.371949,	0.000318,	0.000001
0.373733,	0.000319,	0.000001
0.375517,	0.000319,	0.000001
0.377300,	0.000319,	0.000001
0.379084,	0.000319,	0.000001
0.380868,	0.000320,	0.000001
0.382652,	0.000320,	0.000001
0.384436,	0.000320,	0.000001
0.386220,	0.000321,	0.000001
0.388004,	0.000321,	0.000001
0.389788,	0.000321,	0.000001
0.391572,	0.000321,	0.000001
0.393356,	0.000322,	0.000001
0.395140,	0.000322,	0.000001
0.396924,	0.000322,	0.000001
0.398708,	0.000322,	0.000001
0.400492,	0.000323,	0.000001
0.402275,	0.000323,	0.000001
0.404059,	0.000323,	0.000001
0.405843,	0.000323,	0.000001
0.407627,	0.000324,	0.000001
0.409411,	0.000324,	0.000001
0.411195,	0.000324,	0.000001
0.412979,	0.000324,	0.000001
0.414763,	0.000324,	0.000001
0.416547,	0.000325,	0.000001
0.418331,	0.000325,	0.000001
0.420115,	0.000325,	0.000001
0.421899,	0.000325,	0.000001
0.423683,	0.000325,	0.000001
0.425467,	0.000326,	0.000001
0.427250,	0.000326,	0.000001
0.429034,	0.000326,	0.000001
0.430818,	0.000326,	0.000001
0.432602,	0.000326,	0.000001
0.434386,	0.000326,	0.000001
0.436170,	0.000327,	0.000001
0.437954,	0.000327,	0.000001
0.439738,	0.000327,	0.000001
0.441522,	0.000327,	0.000001
0.443306,	0.000327,	0.000001
0.445090,	0.000327,	0.000001
0.446874,	0.000327,	0.000001
0.448658,	0.000328,	0.000001
0.450441,	0.000328,	0.000001
0.452225,	0.000328,	0.000001
0.454009,	0.000328,	0.000001
0.455793,	0.000328,	0.000001
0.457577,	0.000328,	0.000001
0.459361,	0.000328,	0.000001
0.461145,	0.000328,	0.000001
0.462929,	0.000328,	0.000001
0.464713,	0.000329,	0.000001
0.466497,	0.000329,	0.000001
0.468281,	0.000329,	0.000001
0.470065,	0.000329,	0.000001
0.471849,	0.000329,	0.000001
0.473633,	0.000329,	0.000001
0.475416,	0.000329,	0.000001
0.477200,	0.000329,	0.000001
0.478984,	0.000329,	0.000001
0.480768,	0.000329,	0.000001
0.482552,	0.000329,	0.000001
0.484336,	0.000329,	0.000001
0.486120,	0.000330,	0.000001
0.487904,	0.000330,	0.000001
0.489688,	0.000330,	0.000001
0.491472,	0.000330,	0.000001
0.493256,	0.000330,	0.000001
0.495040,	0.000330,	0.000001
0.496824,	0.000330,	0.000001
0.498608,	0.000330,	0.000001
0.500391,	0.000330,	0.000001
0.502175,	0.000330,	0.000001
0.503959,	0.000330,	0.000001
0.505743,	0.000330,	0.000001
0.507527,	0.000330,	0.000001
0.509311,	0.000330,	0.000001
0.511095,	0.000330,	0.000001
0.512879,	0.000330,	0.000001
0.514663,	0.000330,	0.000001
0.516447,	0.000330,	0.000001
0.518231,	0.000330,	0.000001
0.520015,	0.000330,	0.000001
0.521799,	0.000330,	0.000001
0.523582,	0.000330,	0.000001
0.525366,	0.000330,	0.000001
0.527150,	0.000330,	0.000001
0.528934,	0.000330,	0.000001
0.530718,	0.000330,	0.000001
0.532502,	0.000330,	0.000001
0.534286,	0.000330,	0.000001
0.000892,	0.000424,	0.000001
0.002676,	0.000424,	0.000001
0.004460,	0.000425,	0.000001
0.006244,	0.000427,	0.000001
0.008028,	0.000429,	0.000001
0.009812,	0.000431,	0.000001
0.011596,	0.000433,	0.000001
0.013379,	0.000436,	0.000001
0.015163,	0.000438,	0.000001
0.016947,	0.000441,	0.000001
0.018731,	0.000443,	0.000001
0.020515,	0.000446,	0.000001
0.022299,	0.000448,	0.000001
0.024083,	0.000451,	0.000001
0.025867,	0.000454,	0.000001
0.027651,	0.000456,	0.000001
0.029435,	0.000459,	0.000001
0.031219,	0.000462,	0.000001
0.033003,	0.000465,	0.000001
0.034787,	0.000468,	0.000001
0.036570,	0.000471,	0.000001
0.038354,	0.000474,	0.000001
0.040138,	0.000476,	0.000001
0.041922,	0.000479,	0.000001
0.043706,	0.000482,	0.000001
0.045490,	0.000486,	0.000001
0.047274,	0.000489,	0.000001
0.049058,	0.000492,	0.000001
0.050842,	0.000495,	0.000001
0.052626,	0.000498,	0.000001
0.054410,	0.000501,	0.000001
0.056194,	0.000504,	0.000001
0.057978,	0.000507,	0.000001
0.059762,	0.000511,	0.000001
0.061545,	0.000514,	0.000001
0.063329,	0.000517,	0.000001
0.065113,	0.000520,	0.000001
0.066897,	0.000524,	0.000001
0.068681,	0.000527,	0.000001
0.070465,	0.000530,	0.000001
0.072249,	0.000534,	0.000001
0.074033,	0.000537,	0.000001
0.075817,	0.000540,	0.000001
0.077601,	0.000544,	0.000001
0.079385,	0.000547,	0.000001
0.081169,	0.000550,	0.000001
0.082953,	0.000554,	0.000001
0.084737,	0.000557,	0.000001
0.086520,	0.000560,	0.000001
0.088304,	0.000564,	0.000001
0.090088,	0.000567,	0.000001
0.091872,	0.000570,	0.000001
0.093656,	0.000574,	0.000001
0.095440,	0.000577,	0.000001
0.097224,	0.000581,	0.000001
0.099008,	0.000584,	0.000001
0.100792,	0.000587,	0.000001
0.102576,	0.000591,	0.000001
0.104360,	0.000594,	0.000001
0.106144,	0.000598,	0.000001
0.107928,	0.000601,	0.000001
0.109711,	0.000604,	0.000001
0.111495,	0.000608,	0.000001
0.113279,	0.000611,	0.000001
0.115063,	0.000615,	0.000001
0.116847,	0.000618,	0.000001
0.118631,	0.000621,	0.000001
0.120415,	0.000625,	0.000001
0.122199,	0.000628,	0.000001
0.123983,	0.000632,	0.000001
0.125767,	0.000635,	0.000001
0.127551,	0.000638,	0.000001
0.129335,	0.000642,	0.000001
0.131119,	0.000645,	0.000001
0.132903,	0.000649,	0.000001
0.134686,	0.000652,	0.000001
0.136470,	0.000655,	0.000001
0.138254,	0.000659,	0.000001
0.140038,	0.000662,	0.000001
0.141822,	0.000665,	0.000001
0.143606,	0.000669,	0.000001
0.145390,	0.000672,	0.000001
0.147174,	0.000675,	0.000001
0.148958,	0.000679,	0.000001
0.150742,	0.000682,	0.000001
0.152526,	0.000685,	0.000001
0.154310,	0.000689,	0.000001
0.156094,	0.000692,	0.000001
0.157878,	0.000695,	0.000001
0.159661,	0.000698,	0.000001
0.161445,	0.000702,	0.000001
0.163229,	0.000705,	0.000001
0.165013,	0.000708,	0.000001
0.166797,	0.000711,	0.000001
0.168581,	0.000714,	0.000001
0.170365,	0.000718,	0.000001
0.172149,	0.000721,	0.000001
0.173933,	0.000724,	0.000001
0.175717,	0.000727,	0.000001
0.177501,	0.000730,	0.000001
0.179285,	0.000733,	0.000001
0.181069,	0.000737,	0.000001
0.182852,	0.000740,	0.000001
0.184636,	0.000743,	0.000001
0.186420,	0.000746,	0.000001
0.188204,	0.000749,	0.000001
0.189988,	0.000752,	0.000001
0.191772,	0.000755,	0.000001
0.193556,	0.000758,	0.000001
0.195340,	0.000761,	0.000001
0.197124,	0.000764,	0.000001
0.198908,	0.000767,	0.000001
0.200692,	0.000770,	0.000001
0.202476,	0.000773,	0.000001
0.204260,	0.000776,	0.000001
0.206044,	0.000779,	0.000001
0.207827,	0.000782,	0.000001
0.209611,	0.000785,	0.000001
0.211395,	0.000787,	0.000001
0.213179,	0.000790,	0.000001
0.214963,	0.000793,	0.000001
0.216747,	0.000796,	0.000001
0.218531,	0.000799,	0.000001
0.220315,	0.000802,	0.000001
0.222099,	0.000804,	0.000001
0.223883,	0.000807,	0.000001
0.225667,	0.000810,	0.000001
0.227451,	0.000812,	0.000001
0.229235,	0.000815,	0.000001
0.231019,	0.000818,	0.000001
0.232802,	0.000820,	0.000001
0.234586,	0.000823,	0.000001
0.236370,	0.000826,	0.000001
0.238154,	0.000828,	0.000001
0.239938,	0.000831,	0.000001
0.241722,	0.000833,	0.000001
0.243506,	0.000836,	0.000001
0.245290,	0.000838,	0.000001
0.247074,	0.000841,	0.000001
0.248858,	0.000843,	0.000001
0.250642,	0.000845,	0.000001
0.252426,	0.000848,	0.000001
0.254210,	0.000850,	0.000001
0.255993,	0.000853,	0.000001
0.257777,	0.000855,	0.000001
0.259561,	0.000857,	0.000001
0.261345,	0.000859,	0.000001
0.263129,	0.000862,	0.000001
0.264913,	0.000864,	0.000001
0.266697,	0.000866,	0.000001
0.268481,	0.000868,	0.000001
0.270265,	0.000870,	0.000001
0.272049,	0.000872,	0.000001
0.273833,	0.000875,	0.000001
0.275617,	0.000877,	0.000001
0.277401,	0.000879,	0.000001
0.279185,	0.000881,	0.000001
0.280968,	0.000883,	0.000001
0.282752,	0.000885,	0.000001
0.284536,	0.000887,	0.000001
0.286320,	0.000888,	0.000001
0.288104,	0.000890,	0.000001
0.289888,	0.000892,	0.000001
0.291672,	0.000894,	0.000001
0.293456,	0.000896,	0.000001
0.295240,	0.000898,	0.000001
0.297024,	0.000899,	0.000001
0.298808,	0.000901,	0.000001
0.300592,	0.000903,	0.000001
0.302376,	0.000904,	0.000001
0.304159,	0.000906,	0.000001
0.305943,	0.000908,	0.000001
0.307727,	0.000909,	0.000001
0.309511,	0.000911,	0.000001
0.311295,	0.000913,	0.000001
0.313079,	0.000914,	0.000001
0.314863,	0.000916,	0.000001
0.316647,	0.000917,	0.000001
0.318431,	0.000919,	0.000001
0.320215,	0.000920,	0.000001
0.321999,	0.000922,	0.000001
0.323783,	0.000923,	0.000001
0.325567,	0.000924,	0.000001
0.327351,	0.000926,	0.000001
0.329134,	0.000927,	0.000001
0.330918,	0.000929,	0.000001
0.332702,	0.000930,	0.000001
0.334486,	0.000931,	0.000001
0.336270,	0.000933,	0.000001
0.338054,	0.000934,	0.000001
0.339838,	0.000935,	0.000001
0.341622,	0.000936,	0.000001
0.343406,	0.000938,	0.000001
0.345190,	0.000939,	0.000001
0.346974,	0.000940,	0.000001
0.348758,	0.000941,	0.000001
0.350542,	0.000942,	0.000001
0.352326,	0.000943,	0.000001
0.354109,	0.000944,	0.000001
0.355893,	0.000946,	0.000001
0.357677,	0.000947,	0.000001
0.359461,	0.000948,	0.000001
0.361245,	0.000949,	0.000001
0.363029,	0.000950,	0.000001
0.364813,	0.000951,	0.000001
0.366597,	0.000952,	0.000001
0.368381,	0.000953,	0.000001
0.370165,	0.000954,	0.000001
0.371949,	0.000955,	0.000001
0.373733,	0.000956,	0.000001
0.375517,	0.000957,	0.000001
0.377300,	0.000958,	0.000001
0.379084,	0.000958,	0.000001
0.380868,	0.000959,	0.000001
0.382652,	0.000960,	0.000001
0.384436,	0.000961,	0.000001
0.386220,	0.000962,	0.000001
0.388004,	0.000963,	0.000001
0.389788,	0.000963,	0.000001
0.391572,	0.000964,	0.000001
0.393356,	0.000965,	0.000001
0.395140,	0.000966,	0.000001
0.396924,	0.000967,	0.000001
0.398708,	0.000967,	0.000001
0.400492,	0.000968,	0.000001
0.402275,	0.000969,	0.000001
0.404059,	0.000969,	0.000001
0.405843,	0.000970,	0.000001
0.407627,	0.000971,	0.000001
0.409411,	0.000971,	0.000001
0.411195,	0.000972,	0.000001
0.412979,	0.000973,	0.000001
0.414763,	0.000973,	0.000001
0.416547,	0.000974,	0.000001
0.418331,	0.000974,	0.000001
0.420115,	0.000975,	0.000001
0.421899,	0.000976,	0.000001
0.423683,	0.000976,	0.000001
0.425467,	0.000977,	0.000001
0.427250,	0.000977,	0.000001
0.429034,	0.000978,	0.000001
0.430818,	0.000978,	0.000001
0.432602,	0.000979,	0.000001
0.434386,	0.000979,	0.000001
0.436170,	0.000980,	0.000001
0.437954,	0.000980,	0.000001
0.439738,	0.000981,	0.000001
0.441522,	0.000981,	0.000001
0.443306,	0.000981,	0.000001
0.445090,	0.000982,	0.000001
0.446874,	0.000982,	0.000001
0.448658,	0.000983,	0.000001
0.450441,	0.000983,	0.000001
0.452225,	0.000983,	0.000001
0.454009,	0.000984,	0.000001
0.455793,	0.000984,	0.000001
0.457577,	0.000985,	0.000001
0.459361,	0.000985,	0.000001
0.461145,	0.000985,	0.000001
0.462929,	0.000985,	0.000001
0.464713,	0.000986,	0.000001
0.466497,	0.000986,	0.000001
0.468281,	0.000986,	0.000001
0.470065,	0.000987,	0.000001
0.471849,	0.000987,	0.000001
0.473633,	0.000987,	0.000001
0.475416,	0.000987,	0.000001
0.477200,	0.000988,	0.000001
0.478984,	0.000988,	0.000001
0.480768,	0.000988,	0.000001
0.482552,	0.000988,	0.000001
0.484336,	0.000988,	0.000001
0.486120,	0.000989,	0.000001
0.487904,	0.000989,	0.000001
0.489688,	0.000989,	0.000001
0.491472,	0.000989,	0.000001
0.493256,	0.000989,	0.000001
0.495040,	0.000990,	0.000001
0.496824,	0.000990,	0.000001
0.498608,	0.000990,	0.000001
0.500391,	0.000990,	0.000001
0.502175,	0.000990,	0.000001
0.503959,	0.000990,	0.000001
0.505743,	0.000990,	0.000001
0.507527,	0.000990,	0.000001
0.509311,	0.000991,	0.000001
0.511095,	0.000991,	0.000001
0.512879,	0.000991,	0.000001
0.514663,	0.000991,	0.000001
0.516447,	0.000991,	0.000001
0.518231,	0.000991,	0.000001
0.520015,	0.000991,	0.000001
0.521799,	0.000991,	0.000001
0.523582,	0.000991,	0.000001
0.525366,	0.000991,	0.000001
0.527150,	0.000991,	0.000001
0.528934,	0.000991,	0.000001
0.530718,	0.000991,	0.000001
0.532502,	0.000991,	0.000001
0.534286,	0.000991,	0.000001
0.000892,	0.000707,	0.000001
0.002676,	0.000707,	0.000001
0.004460,	0.000708,	0.000001
0.006244,	0.000711,	0.000001
0.008028,	0.000715,	0.000001
0.009812,	0.000718,	0.000001
0.011596,	0.000722,	0.000001
0.013379,	0.000726,	0.000001
0.015163,	0.000730,	0.000001
0.016947,	0.000734,	0.000001
0.018731,	0.000738,	0.000001
0.020515,	0.000743,	0.000001
0.022299,	0.000747,	0.000001
0.024083,	0.000751,	0.000001
0.025867,	0.000756,	0.000001
0.027651,	0.000761,	0.000001
0.029435,	0.000765,	0.000001
0.031219,	0.000770,	0.000001
0.033003,	0.000775,	0.000001
0.034787,	0.000779,	0.000001
0.036570,	0.000784,	0.000001
0.038354,	0.000789,	0.000001
0.040138,	0.000794,	0.000001
0.041922,	0.000799,	0.000001
0.043706,	0.000804,	0.000001
0.045490,	0.000809,	0.000001
0.047274,	0.000814,	0.000001
0.049058,	0.000820,	0.000001
0.050842,	0.000825,	0.000001
0.052626,	0.000830,	0.000001
0.054410,	0.000835,	0.000001
0.056194,	0.000840,	0.000001
0.057978,	0.000846,	0.000001
0.059762,	0.000851,	0.000001
0.061545,	0.000857,	0.000001
0.063329,	0.000862,	0.000001
0.065113,	0.000867,	0.000001
0.066897,	0.000873,	0.000001
0.068681,	0.000878,	0.000001
0.070465,	0.000884,	0.000001
0.072249,	0.000889,	0.000001
0.074033,	0.000895,	0.000001
0.075817,	0.000900,	0.000001
0.077601,	0.000906,	0.000001
0.079385,	0.000911,	0.000001
0.081169,	0.000917,	0.000001
0.082953,	0.000923,	0.000001
0.084737,	0.000928,	0.000001
0.086520,	0.000934,	0.000001
0.088304,	0.000939,	0.000001
0.090088,	0.000945,	0.000001
0.091872,	0.000951,	0.000001
0.093656,	0.000956,	0.000001
0.095440,	0.000962,	0.000001
0.097224,	0.000968,	0.000001
0.099008,	0.000973,	0.000001
0.100792,	0.000979,	0.000001
0.102576,	0.000985,	0.000001
0.104360,	0.000990,	0.000001
0.106144,	0.000996,	0.000001
0.107928,	0.001002,	0.000001
0.109711,	0.001007,	0.000001
0.111495,	0.001013,	0.000001
0.113279,	0.001019,	0.000001
0.115063,	0.001024,	0.000001
0.116847,	0.001030,	0.000001
0.118631,	0.001036,	0.000001
0.120415,	0.001041,	0.000001
0.122199,	0.001047,	0.000001
0.123983,	0.001053,	0.000001
0.125767,	0.001058,	0.000001
0.127551,	0.001064,	0.000001
0.129335,	0.001070,	0.000001
0.131119,	0.001075,	0.000001
0.132903,	0.001081,	0.000001
0.134686,	0.001087,	0.000001
0.136470,	0.001092,	0.000001
0.138254,	0.001098,	0.000001
0.140038,	0.001103,	0.000001
0.141822,	0.001109,	0.000001
0.143606,	0.001114,	0.000001
0.145390,	0.001120,	0.000001
0.147174,	0.001126,	0.000001
0.148958,	0.001131,	0.000001
0.150742,	0.001137,	0.000001
0.152526,	0.001142,	0.000001
0.154310,	0.001148,	0.000001
0.156094,	0.001153,	0.000001
0.157878,	0.001158,	0.000001
0.159661,	0.001164,	0.000001
0.161445,	0.001169,	0.000001
0.163229,	0.001175,	0.000001
0.165013,	0.001180,	0.000001
0.166797,	0.001185,	0.000001
0.168581,	0.001191,	0.000001
0.170365,	0.001196,	0.000001
0.172149,	0.001201,	0.000001
0.173933,	0.001207,	0.000001
0.175717,	0.001212,	0.000001
0.177501,	0.001217,	0.000001
0.179285,	0.001222,	0.000001
0.181069,	0.001228,	0.000001
0.182852,	0.001233,	0.000001
0.184636,	0.001238,	0.000001
0.186420,	0.001243,	0.000001
0.188204,	0.001248,	0.000001
0.189988,	0.001253,	0.000001
0.191772,	0.001258,	0.000001
0.193556,	0.001264,	0.000001
0.195340,	0.001269,	0.000001
0.197124,	0.001274,	0.000001
0.198908,	0.001278,	0.000001
0.200692,	0.001283,	0.000001
0.202476,	0.001288,	0.000001
0.204260,	0.001293,	0.000001
0.206044,	0.001298,	0.000001
0.207827,	0.001303,	0.000001
0.209611,	0.001308,	0.000001
0.211395,	0.001312,	0.000001
0.213179,	0.001317,	0.000001
0.214963,	0.001322,	0.000001
0.216747,	0.001327,	0.000001
0.218531,	0.001331,	0.000001
0.220315,	0.001336,	0.000001
0.222099,	0.001340,	0.000001
0.223883,	0.001345,	0.000001
0.225667,	0.001350,	0.000001
0.227451,	0.001354,	0.000001
0.229235,	0.001358,	0.000001
0.231019,	0.001363,	0.000001
0.232802,	0.001367,	0.000001
0.234586,	0.001372,	0.000001
0.236370,	0.001376,	0.000001
0.238154,	0.001380,	0.000001
0.239938,	0.001384,	0.000001
0.241722,	0.001389,	0.000001
0.243506,	0.001393,	0.000001
0.245290,	0.001397,	0.000001
0.247074,	0.001401,	0.000001
0.248858,	0.001405,	0.000001
0.250642,	0.001409,	0.000001
0.252426,	0.001413,	0.000001
0.254210,	0.001417,	0.000001
0.255993,	0.001421,	0.000001
0.257777,	0.001425,	0.000001
0.259561,	0.001429,	0.000001
0.261345,	0.001432,	0.000001
0.263129,	0.001436,	0.000001
0.264913,	0.001440,	0.000001
0.266697,	0.001443,	0.000001
0.268481,	0.001447,	0.000001
0.270265,	0.001451,	0.000001
0.272049,	0.001454,	0.000001
0.273833,	0.001458,	0.000001
0.275617,	0.001461,	0.000001
0.277401,	0.001464,	0.000001
0.279185,	0.001468,	0.000001
0.280968,	0.001471,	0.000001
0.282752,	0.001474,	0.000001
0.284536,	0.001478,	0.000001
0.286320,	0.001481,	0.000001
0.288104,	0.001484,	0.000001
0.289888,	0.001487,	0.000001
0.291672,	0.001490,	0.000001
0.293456,	0.001493,	0.000001
0.295240,	0.001496,	0.000001
0.297024,	0.001499,	0.000001
0.298808,	0.001502,	0.000001
0.300592,	0.001505,	0.000001
0.302376,	0.001507,	0.000001
0.304159,	0.001510,	0.000001
0.305943,	0.001513,	0.000001
0.307727,	0.001516,	0.000001
0.309511,	0.001518,	0.000001
0.311295,	0.001521,	0.000001
0.313079,	0.001524,	0.000001
0.314863,	0.001526,	0.000001
0.316647,	0.001529,	0.000001
0.318431,	0.001531,	0.000001
0.320215,	0.001534,	0.000001
0.321999,	0.001536,	0.000001
0.323783,	0.001538,	0.000001
0.325567,	0.001541,	0.000001
0.327351,	0.001543,	0.000001
0.329134,	0.001545,	0.000001
0.330918,	0.001548,	0.000001
0.332702,	0.001550,	0.000001
0.334486,	0.001552,	0.000001
0.336270,	0.001554,	0.000001
0.338054,	0.001556,	0.000001
0.339838,	0.001558,	0.000001
0.341622,	0.001561,	0.000001
0.343406,	0.001563,	0.000001
0.345190,	0.001565,	0.000001
0.346974,	0.001567,	0.000001
0.348758,	0.001568,	0.000001
0.350542,	0.001570,	0.000001
0.352326,	0.001572,	0.000001
0.354109,	0.001574,	0.000001
0.355893,	0.001576,	0.000001
0.357677,	0.001578,	0.000001
0.359461,	0.001580,	0.000001
0.361245,	0.001581,	0.000001
0.363029,	0.001583,	0.000001
0.364813,	0.001585,	0.000001
0.366597,	0.001586,	0.000001
0.368381,	0.001588,	0.000001
0.370165,	0.001590,	0.000001
0.371949,	0.001591,	0.000001
0.373733,	0.001593,	0.000001
0.375517,	0.001594,	0.000001
0.377300,	0.001596,	0.000001
0.379084,	0.001597,	0.000001
0.380868,	0.001599,	0.000001
0.382652,	0.001600,	0.000001
0.384436,	0.001602,	0.000001
0.386220,	0.001603,	0.000001
0.388004,	0.001604,	0.000001
0.389788,	0.001606,	0.000001
0.391572,	0.001607,	0.000001
0.393356,	0.001608,	0.000001
0.395140,	0.001610,	0.000001
0.396924,	0.001611,	0.000001
0.398708,	0.001612,	0.000001
0.400492,	0.001613,	0.000001
0.402275,	0.001615,	0.000001
0.404059,	0.001616,	0.000001
0.405843,	0.001617,	0.000001
0.407627,	0.001618,	0.000001
0.409411,	0.001619,	0.000001
0.411195,	0.001620,	0.000001
0.412979,	0.001621,	0.000001
0.414763,	0.001622,	0.000001
0.416547,	0.001623,	0.000001
0.418331,	0.001624,	0.000001
0.420115,	0.001625,	0.000001
0.421899,	0.001626,	0.000001
0.423683,	0.001627,	0.000001
0.425467,	0.001628,	0.000001
0.427250,	0.001629,	0.000001
0.429034,	0.001630,	0.000001
0.430818,	0.001630,	0.000001
0.432602,	0.001631,	0.000001
0.434386,	0.001632,	0.000001
0.436170,	0.001633,	0.000001
0.437954,	0.001634,	0.000001
0.439738,	0.001634,	0.000001
0.441522,	0.001635,	0.000001
0.443306,	0.001636,	0.000001
0.445090,	0.001636,	0.000001
0.446874,	0.001637,	0.000001
0.448658,	0.001638,	0.000001
0.450441,	0.001638,	0.000001
0.452225,	0.001639,	0.000001
0.454009,	0.001640,	0.000001
0.455793,	0.001640,	0.000001
0.457577,	0.001641,	0.000001
0.459361,	0.001641,	0.000001
0.461145,	0.001642,	0.000001
0.462929,	0.001642,	0.000001
0.464713,	0.001643,	0.000001
0.466497,	0.001643,	0.000001
0.468281,	0.001644,	0.000001
0.470065,	0.001644,	0.000001
0.471849,	0.001645,	0.000001
0.473633,	0.001645,	0.000001
0.475416,	0.001646,	0.000001
0.477200,	0.001646,	0.000001
0.478984,	0.001646,	0.000001
0.480768,	0.001647,	0.000001
0.482552,	0.001647,	0.000001
0.484336,	0.001647,	0.000001
0.486120,	0.001648,	0.000001
0.487904,	0.001648,	0.000001
0.489688,	0.001648,	0.000001
0.491472,	0.001649,	0.000001
0.493256,	0.001649,	0.000001
0.495040,	0.001649,	0.000001
0.496824,	0.001649,	0.000001
0.498608,	0.001650,	0.000001
0.500391,	0.001650,	0.000001
0.502175,	0.001650,	0.000001
0.503959,	0.001650,	0.000001
0.505743,	0.001651,	0.000001
0.507527,	0.001651,	0.000001
0.509311,	0.001651,	0.000001
0.511095,	0.001651,	0.000001
0.512879,	0.001651,	0.000001
0.514663,	0.001651,	0.000001
0.516447,	0.001651,	0.000001
0.518231,	0.001652,	0.000001
0.520015,	0.001652,	0.000001
0.521799,	0.001652,	0.000001
0.523582,	0.001652,	0.000001
0.525366,	0.001652,	0.000001
0.527150,	0.001652,	0.000001
0.528934,	0.001652,	0.000001
0.530718,	0.001652,	0.000001
0.532502,	0.001652,	0.000001
0.534286,	0.001652,	0.000001
0.000892,	0.000989,	0.000001
0.002676,	0.000990,	0.000001
0.004460,	0.000992,	0.000001
0.006244,	0.000996,	0.000001
0.008028,	0.001001,	0.000001
0.009812,	0.001006,	0.000001
0.011596,	0.001011,	0.000001
0.013379,	0.001017,	0.000001
0.015163,	0.001022,	0.000001
0.016947,	0.001028,	0.000001
0.018731,	0.001034,	0.000001
0.020515,	0.001040,	0.000001
0.022299,	0.001046,	0.000001
0.024083,	0.001052,	0.000001
0.025867,	0.001058,	0.000001
0.027651,	0.001065,	0.000001
0.029435,	0.001071,	0.000001
0.031219,	0.001078,	0.000001
0.033003,	0.001084,	0.000001
0.034787,	0.001091,	0.000001
0.036570,	0.001098,	0.000001
0.038354,	0.001105,	0.000001
0.040138,	0.001112,	0.000001
0.041922,	0.001119,	0.000001
0.043706,	0.001126,	0.000001
0.045490,	0.001133,	0.000001
0.047274,	0.001140,	0.000001
0.049058,	0.001147,	0.000001
0.050842,	0.001155,	0.000001
0.052626,	0.001162,	0.000001
0.054410,	0.001169,	0.000001
0.056194,	0.001177,	0.000001
0.057978,	0.001184,	0.000001
0.059762,	0.001192,	0.000001
0.061545,	0.001199,	0.000001
0.063329,	0.001207,	0.000001
0.065113,	0.001214,	0.000001
0.066897,	0.001222,	0.000001
0.068681,	0.001230,	0.000001
0.070465,	0.001237,	0.000001
0.072249,	0.001245,	0.000001
0.074033,	0.001253,	0.000001
0.075817,	0.001260,	0.000001
0.077601,	0.001268,	0.000001
0.079385,	0.001276,	0.000001
0.081169,	0.001284,	0.000001
0.082953,	0.001292,	0.000001
0.084737,	0.001300,	0.000001
0.086520,	0.001307,	0.000001
0.088304,	0.001315,	0.000001
0.090088,	0.001323,	0.000001
0.091872,	0.001331,	0.000001
0.093656,	0.001339,	0.000001
0.095440,	0.001347,	0.000001
0.097224,	0.001355,	0.000001
0.099008,	0.001363,	0.000001
0.100792,	0.001371,	0.000001
0.102576,	0.001379,	0.000001
0.104360,	0.001387,	0.000001
0.106144,	0.001395,	0.000001
0.107928,	0.001402,	0.000001
0.109711,	0.001410,	0.000001
0.111495,	0.001418,	0.000001
0.113279,	0.001426,	0.000001
0.115063,	0.001434,	0.000001
0.116847,	0.001442,	0.000001
0.118631,	0.001450,	0.000001
0.120415,	0.001458,	0.000001
0.122199,	0.001466,	0.000001
0.123983,	0.001474,	0.000001
0.125767,	0.001482,	0.000001
0.127551,	0.001490,	0.000001
0.129335,	0.001498,	0.000001
0.131119,	0.001505,	0.000001
0.132903,	0.001513,	0.000001
0.134686,	0.001521,	0.000001
0.136470,	0.001529,	0.000001
0.138254,	0.001537,	0.000001
0.140038,	0.001545,	0.000001
0.141822,	0.001552,	0.000001
0.143606,	0.001560,	0.000001
0.145390,	0.001568,	0.000001
0.147174,	0.001576,	0.000001
0.148958,	0.001584,	0.000001
0.150742,	0.001591,	0.000001
0.152526,	0.001599,	0.000001
0.154310,	0.001607,	0.000001
0.156094,	0.001614,	0.000001
0.157878,	0.001622,	0.000001
0.159661,	0.001629,	0.000001
0.161445,	0.001637,	0.000001
0.163229,	0.001645,	0.000001
0.165013,	0.001652,	0.000001
0.166797,	0.001660,	0.000001
0.168581,	0.001667,	0.000001
0.170365,	0.001675,	0.000001
0.172149,	0.001682,	0.000001
0.173933,	0.001689,	0.000001
0.175717,	0.001697,	0.000001
0.177501,	0.001704,	0.000001
0.179285,	0.001711,	0.000001
0.181069,	0.001719,	0.000001
0.182852,	0.001726,	0.000001
0.184636,	0.001733,	0.000001
0.186420,	0.001740,	0.000001
0.188204,	0.001748,	0.000001
0.189988,	0.001755,	0.000001
0.191772,	0.001762,	0.000001
0.193556,	0.001769,	0.000001
0.195340,	0.001776,	0.000001
0.197124,	0.001783,	0.000001
0.198908,	0.001790,	0.000001
0.200692,	0.001797,	0.000001
0.202476,	0.001804,	0.000001
0.204260,	0.001810,	0.000001
0.206044,	0.001817,	0.000001
0.207827,	0.001824,	0.000001
0.209611,	0.001831,	0.000001
0.211395,	0.001837,	0.000001
0.213179,	0.001844,	0.000001
0.214963,	0.001851,	0.000001
0.216747,	0.001857,	0.000001
0.218531,	0.001864,	0.000001
0.220315,	0.001870,	0.000001
0.222099,	0.001877,	0.000001
0.223883,	0.001883,	0.000001
0.225667,	0.001889,	0.000001
0.227451,	0.001896,	0.000001
0.229235,	0.001902,	0.000001
0.231019,	0.001908,	0.000001
0.232802,	0.001914,	0.000001