TITLE = "MeshVolumeStats"
VARIABLES = "X", "Y", "VOL"
ZONE I=200, J=50, DATAPACKING=POINT
0.000242,	0.000349,	0.000000
0.000726,	0.000349,	0.000000
0.001211,	0.000349,	0.000000
0.001695,	0.000349,	0.000000
0.002179,	0.000349,	0.000000
0.002663,	0.000349,	0.000000
0.003148,	0.000348,	0.000000
0.003632,	0.000348,	0.000000
0.004116,	0.000348,	0.000000
0.004600,	0.000347,	0.000000
0.005085,	0.000347,	0.000000
0.005569,	0.000347,	0.000000
0.006053,	0.000346,	0.000000
0.006537,	0.000346,	0.000000
0.007022,	0.000345,	0.000000
0.007506,	0.000344,	0.000000
0.007990,	0.000344,	0.000000
0.008474,	0.000343,	0.000000
0.008959,	0.000342,	0.000000
0.009443,	0.000341,	0.000000
0.009927,	0.000340,	0.000000
0.010411,	0.000339,	0.000000
0.010896,	0.000338,	0.000000
0.011380,	0.000336,	0.000000
0.011864,	0.000335,	0.000000
0.012348,	0.000334,	0.000000
0.012833,	0.000333,	0.000000
0.013317,	0.000331,	0.000000
0.013801,	0.000330,	0.000000
0.014285,	0.000328,	0.000000
0.014770,	0.000326,	0.000000
0.015254,	0.000324,	0.000000
0.015738,	0.000323,	0.000000
0.016222,	0.000321,	0.000000
0.016707,	0.000319,	0.000000
0.017191,	0.000317,	0.000000
0.017675,	0.000315,	0.000000
0.018159,	0.000313,	0.000000
0.018644,	0.000310,	0.000000
0.019128,	0.000308,	0.000000
0.019612,	0.000306,	0.000000
0.020096,	0.000303,	0.000000
0.020581,	0.000301,	0.000000
0.021065,	0.000298,	0.000000
0.021549,	0.000295,	0.000000
0.022033,	0.000292,	0.000000
0.022518,	0.000289,	0.000000
0.023002,	0.000286,	0.000000
0.023486,	0.000283,	0.000000
0.023970,	0.000280,	0.000000
0.024455,	0.000277,	0.000000
0.024939,	0.000273,	0.000000
0.025423,	0.000270,	0.000000
0.025907,	0.000266,	0.000000
0.026392,	0.000262,	0.000000
0.026876,	0.000259,	0.000000
0.027360,	0.000254,	0.000000
0.027844,	0.000250,	0.000000
0.028329,	0.000246,	0.000000
0.028813,	0.000242,	0.000000
0.029297,	0.000237,	0.000000
0.029781,	0.000232,	0.000000
0.030266,	0.000228,	0.000000
0.030750,	0.000223,	0.000000
0.031234,	0.000217,	0.000000
0.031718,	0.000212,	0.000000
0.032203,	0.000206,	0.000000
0.032687,	0.000201,	0.000000
0.033171,	0.000195,	0.000000
0.033655,	0.000189,	0.000000
0.034140,	0.000183,	0.000000
0.034624,	0.000177,	0.000000
0.035108,	0.000171,	0.000000
0.035592,	0.000165,	0.000000
0.036077,	0.000159,	0.000000
0.036561,	0.000153,	0.000000
0.037045,	0.000148,	0.000000
0.037529,	0.000142,	0.000000
0.038014,	0.000136,	0.000000
0.038498,	0.000130,	0.000000
0.038982,	0.000124,	0.000000
0.039466,	0.000118,	0.000000
0.039951,	0.000112,	0.000000
0.040435,	0.000106,	0.000000
0.040919,	0.000100,	0.000000
0.041403,	0.000094,	0.000000
0.041888,	0.000089,	0.000000
0.042372,	0.000083,	0.000000
0.042856,	0.000077,	0.000000
0.043340,	0.000071,	0.000000
0.043825,	0.000065,	0.000000
0.044309,	0.000060,	0.000000
0.044793,	0.000056,	0.000000
0.045277,	0.000054,	0.000000
0.045762,	0.000052,	0.000000
0.046246,	0.000051,	0.000000
0.046730,	0.000051,	0.000000
0.047214,	0.000053,	0.000000
0.047699,	0.000054,	0.000000
0.048183,	0.000056,	0.000000
0.048667,	0.000057,	0.000000
0.049151,	0.000058,	0.000000
0.049636,	0.000059,	0.000000
0.050120,	0.000061,	0.000000
0.050604,	0.000062,	0.000000
0.051088,	0.000063,	0.000000
0.051573,	0.000064,	0.000000
0.052057,	0.000066,	0.000000
0.052541,	0.000067,	0.000000
0.053025,	0.000068,	0.000000
0.053510,	0.000069,	0.000000
0.053994,	0.000070,	0.000000
0.054478,	0.000072,	0.000000
0.054962,	0.000073,	0.000000
0.055447,	0.000074,	0.000000
0.055931,	0.000075,	0.000000
0.056415,	0.000076,	0.000000
0.056899,	0.000077,	0.000000
0.057384,	0.000078,	0.000000
0.057868,	0.000080,	0.000000
0.058352,	0.000081,	0.000000
0.058836,	0.000082,	0.000000
0.059321,	0.000083,	0.000000
0.059805,	0.000084,	0.000000
0.060289,	0.000085,	0.000000
0.060773,	0.000086,	0.000000
0.061258,	0.000087,	0.000000
0.061742,	0.000088,	0.000000
0.062226,	0.000089,	0.000000
0.062710,	0.000090,	0.000000
0.063195,	0.000091,	0.000000
0.063679,	0.000092,	0.000000
0.064163,	0.000093,	0.000000
0.064647,	0.000094,	0.000000
0.065132,	0.000095,	0.000000
0.065616,	0.000096,	0.000000
0.066100,	0.000097,	0.000000
0.066584,	0.000097,	0.000000
0.067069,	0.000098,	0.000000
0.067553,	0.000099,	0.000000
0.068037,	0.000100,	0.000000
0.068521,	0.000101,	0.000000
0.069006,	0.000102,	0.000000
0.069490,	0.000103,	0.000000
0.069974,	0.000104,	0.000000
0.070458,	0.000104,	0.000000
0.070943,	0.000105,	0.000000
0.071427,	0.000106,	0.000000
0.071911,	0.000107,	0.000000
0.072395,	0.000107,	0.000000
0.072880,	0.000108,	0.000000
0.073364,	0.000109,	0.000000
0.073848,	0.000109,	0.000000
0.074332,	0.000110,	0.000000
0.074817,	0.000111,	0.000000
0.075301,	0.000112,	0.000000
0.075785,	0.000112,	0.000000
0.076269,	0.000113,	0.000000
0.076754,	0.000114,	0.000000
0.077238,	0.000114,	0.000000
0.077722,	0.000115,	0.000000
0.078206,	0.000115,	0.000000
0.078691,	0.000116,	0.000000
0.079175,	0.000116,	0.000000
0.079659,	0.000117,	0.000000
0.080143,	0.000118,	0.000000
0.080628,	0.000118,	0.000000
0.081112,	0.000119,	0.000000
0.081596,	0.000119,	0.000000
0.082080,	0.000120,	0.000000
0.082565,	0.000120,	0.000000
0.083049,	0.000121,	0.000000
0.083533,	0.000121,	0.000000
0.084017,	0.000121,	0.000000
0.084502,	0.000122,	0.000000
0.084986,	0.000122,	0.000000
0.085470,	0.000122,	0.000000
0.085954,	0.000123,	0.000000
0.086439,	0.000123,	0.000000
0.086923,	0.000124,	0.000000
0.087407,	0.000124,	0.000000
0.087891,	0.000124,	0.000000
0.088376,	0.000124,	0.000000
0.088860,	0.000125,	0.000000
0.089344,	0.000125,	0.000000
0.089828,	0.000125,	0.000000
0.090313,	0.000125,	0.000000
0.090797,	0.000126,	0.000000
0.091281,	0.000126,	0.000000
0.091765,	0.000126,	0.000000
0.092250,	0.000126,	0.000000
0.092734,	0.000126,	0.000000
0.093218,	0.000127,	0.000000
0.093702,	0.000127,	0.000000
0.094187,	0.000127,	0.000000
0.094671,	0.000127,	0.000000
0.095155,	0.000127,	0.000000
0.095639,	0.000127,	0.000000
0.096124,	0.000127,	0.000000
0.096608,	0.000127,	0.000000
0.000242,	0.001046,	0.000000
0.000726,	0.001046,	0.000000
0.001211,	0.001046,	0.000000
0.001695,	0.001046,	0.000000
0.002179,	0.001046,	0.000000
0.002663,	0.001046,	0.000000
0.003148,	0.001045,	0.000000
0.003632,	0.001044,	0.000000
0.004116,	0.001043,	0.000000
0.004600,	0.001042,	0.000000
0.005085,	0.001041,	0.000000
0.005569,	0.001040,	0.000000
0.006053,	0.001038,	0.000000
0.006537,	0.001037,	0.000000
0.007022,	0.001035,	0.000000
0.007506,	0.001033,	0.000000
0.007990,	0.001031,	0.000000
0.008474,	0.001028,	0.000000
0.008959,	0.001026,	0.000000
0.009443,	0.001023,	0.000000
0.009927,	0.001019,	0.000000
0.010411,	0.001016,	0.000000
0.010896,	0.001013,	0.000000
0.011380,	0.001009,	0.000000
0.011864,	0.001006,	0.000000
0.012348,	0.001002,	0.000000
0.012833,	0.000998,	0.000000
0.013317,	0.000993,	0.000000
0.013801,	0.000989,	0.000000
0.014285,	0.000984,	0.000000
0.014770,	0.000979,	0.000000
0.015254,	0.000973,	0.000000
0.015738,	0.000968,	0.000000
0.016222,	0.000963,	0.000000
0.016707,	0.000957,	0.000000
0.017191,	0.000951,	0.000000
0.017675,	0.000945,	0.000000
0.018159,	0.000938,	0.000000
0.018644,	0.000931,	0.000000
0.019128,	0.000924,	0.000000
0.019612,	0.000917,	0.000000
0.020096,	0.000909,	0.000000
0.020581,	0.000902,	0.000000
0.021065,	0.000894,	0.000000
0.021549,	0.000886,	0.000000
0.022033,	0.000877,	0.000000
0.022518,	0.000868,	0.000000
0.023002,	0.000859,	0.000000
0.023486,	0.000850,	0.000000
0.023970,	0.000840,	0.000000
0.024455,	0.000830,	0.000000
0.024939,	0.000820,	0.000000
0.025423,	0.000810,	0.000000
0.025907,	0.000799,	0.000000
0.026392,	0.000787,	0.000000
0.026876,	0.000776,	0.000000
0.027360,	0.000763,	0.000000
0.027844,	0.000751,	0.000000
0.028329,	0.000738,	0.000000
0.028813,	0.000725,	0.000000
0.029297,	0.000712,	0.000000
0.029781,	0.000697,	0.000000
0.030266,	0.000683,	0.000000
0.030750,	0.000668,	0.000000
0.031234,	0.000652,	0.000000
0.031718,	0.000635,	0.000000
0.032203,	0.000619,	0.000000
0.032687,	0.000602,	0.000000
0.033171,	0.000584,	0.000000
0.033655,	0.000566,	0.000000
0.034140,	0.000548,	0.000000
0.034624,	0.000531,	0.000000
0.035108,	0.000514,	0.000000
0.035592,	0.000496,	0.000000
0.036077,	0.000478,	0.000000
0.036561,	0.000460,	0.000000
0.037045,	0.000443,	0.000000
0.037529,	0.000425,	0.000000
0.038014,	0.000407,	0.000000
0.038498,	0.000390,	0.000000
0.038982,	0.000372,	0.000000
0.039466,	0.000354,	0.000000
0.039951,	0.000337,	0.000000
0.040435,	0.000319,	0.000000
0.040919,	0.000301,	0.000000
0.041403,	0.000283,	0.000000
0.041888,	0.000266,	0.000000
0.042372,	0.000249,	0.000000
0.042856,	0.000231,	0.000000
0.043340,	0.000213,	0.000000
0.043825,	0.000196,	0.000000
0.044309,	0.000181,	0.000000
0.044793,	0.000169,	0.000000
0.045277,	0.000161,	0.000000
0.045762,	0.000155,	0.000000
0.046246,	0.000153,	0.000000
0.046730,	0.000154,	0.000000
0.047214,	0.000158,	0.000000
0.047699,	0.000162,	0.000000
0.048183,	0.000167,	0.000000
0.048667,	0.000170,	0.000000
0.049151,	0.000174,	0.000000
0.049636,	0.000178,	0.000000
0.050120,	0.000182,	0.000000
0.050604,	0.000186,	0.000000
0.051088,	0.000189,	0.000000
0.051573,	0.000193,	0.000000
0.052057,	0.000197,	0.000000
0.052541,	0.000201,	0.000000
0.053025,	0.000204,	0.000000
0.053510,	0.000208,	0.000000
0.053994,	0.000211,	0.000000
0.054478,	0.000215,	0.000000
0.054962,	0.000218,	0.000000
0.055447,	0.000222,	0.000000
0.055931,	0.000225,	0.000000
0.056415,	0.000229,	0.000000
0.056899,	0.000232,	0.000000
0.057384,	0.000235,	0.000000
0.057868,	0.000239,	0.000000
0.058352,	0.000242,	0.000000
0.058836,	0.000245,	0.000000
0.059321,	0.000248,	0.000000
0.059805,	0.000252,	0.000000
0.060289,	0.000255,	0.000000
0.060773,	0.000258,	0.000000
0.061258,	0.000261,	0.000000
0.061742,	0.000264,	0.000000
0.062226,	0.000267,	0.000000
0.062710,	0.000270,	0.000000
0.063195,	0.000273,	0.000000
0.063679,	0.000276,	0.000000
0.064163,	0.000279,	0.000000
0.064647,	0.000282,	0.000000
0.065132,	0.000284,	0.000000
0.065616,	0.000287,	0.000000
0.066100,	0.000290,	0.000000
0.066584,	0.000292,	0.000000
0.067069,	0.000295,	0.000000
0.067553,	0.000297,	0.000000
0.068037,	0.000300,	0.000000
0.068521,	0.000303,	0.000000
0.069006,	0.000305,	0.000000
0.069490,	0.000308,	0.000000
0.069974,	0.000311,	0.000000
0.070458,	0.000313,	0.000000
0.070943,	0.000315,	0.000000
0.071427,	0.000318,	0.000000
0.071911,	0.000320,	0.000000
0.072395,	0.000322,	0.000000
0.072880,	0.000324,	0.000000
0.073364,	0.000326,	0.000000
0.073848,	0.000328,	0.000000
0.074332,	0.000331,	0.000000
0.074817,	0.000333,	0.000000
0.075301,	0.000335,	0.000000
0.075785,	0.000337,	0.000000
0.076269,	0.000339,	0.000000
0.076754,	0.000341,	0.000000
0.077238,	0.000342,	0.000000
0.077722,	0.000344,	0.000000
0.078206,	0.000346,	0.000000
0.078691,	0.000348,	0.000000
0.079175,	0.000349,	0.000000
0.079659,	0.000351,	0.000000
0.080143,	0.000353,	0.000000
0.080628,	0.000354,	0.000000
0.081112,	0.000356,	0.000000
0.081596,	0.000357,	0.000000
0.082080,	0.000359,	0.000000
0.082565,	0.000360,	0.000000
0.083049,	0.000362,	0.000000
0.083533,	0.000363,	0.000000
0.084017,	0.000364,	0.000000
0.084502,	0.000365,	0.000000
0.084986,	0.000366,	0.000000
0.085470,	0.000367,	0.000000
0.085954,	0.000369,	0.000000
0.086439,	0.000370,	0.000000
0.086923,	0.000371,	0.000000
0.087407,	0.000372,	0.000000
0.087891,	0.000372,	0.000000
0.088376,	0.000373,	0.000000
0.088860,	0.000374,	0.000000
0.089344,	0.000375,	0.000000
0.089828,	0.000376,	0.000000
0.090313,	0.000376,	0.000000
0.090797,	0.000377,	0.000000
0.091281,	0.000377,	0.000000
0.091765,	0.000378,	0.000000
0.092250,	0.000379,	0.000000
0.092734,	0.000379,	0.000000
0.093218,	0.000380,	0.000000
0.093702,	0.000380,	0.000000
0.094187,	0.000380,	0.000000
0.094671,	0.000380,	0.000000
0.095155,	0.000380,	0.000000
0.095639,	0.000380,	0.000000
0.096124,	0.000381,	0.000000
0.096608,	0.000381,	0.000000
0.000242,	0.001744,	0.000000
0.000726,	0.001744,	0.000000
0.001211,	0.001744,	0.000000
0.001695,	0.001744,	0.000000
0.002179,	0.001743,	0.000000
0.002663,	0.001743,	0.000000
0.003148,	0.001742,	0.000000
0.003632,	0.001740,	0.000000
0.004116,	0.001739,	0.000000
0.004600,	0.001737,	0.000000
0.005085,	0.001735,	0.000000
0.005569,	0.001733,	0.000000
0.006053,	0.001730,	0.000000
0.006537,	0.001728,	0.000000
0.007022,	0.001725,	0.000000
0.007506,	0.001721,	0.000000
0.007990,	0.001718,	0.000000
0.008474,	0.001714,	0.000000
0.008959,	0.001709,	0.000000
0.009443,	0.001704,	0.000000
0.009927,	0.001699,	0.000000
0.010411,	0.001694,	0.000000
0.010896,	0.001688,	0.000000
0.011380,	0.001682,	0.000000
0.011864,	0.001676,	0.000000
0.012348,	0.001669,	0.000000
0.012833,	0.001663,	0.000000
0.013317,	0.001655,	0.000000
0.013801,	0.001648,	0.000000
0.014285,	0.001640,	0.000000
0.014770,	0.001631,	0.000000
0.015254,	0.001622,	0.000000
0.015738,	0.001613,	0.000000
0.016222,	0.001604,	0.000000
0.016707,	0.001595,	0.000000
0.017191,	0.001585,	0.000000
0.017675,	0.001574,	0.000000
0.018159,	0.001563,	0.000000
0.018644,	0.001552,	0.000000
0.019128,	0.001540,	0.000000
0.019612,	0.001528,	0.000000
0.020096,	0.001516,	0.000000
0.020581,	0.001503,	0.000000
0.021065,	0.001490,	0.000000
0.021549,	0.001476,	0.000000
0.022033,	0.001462,	0.000000
0.022518,	0.001447,	0.000000
0.023002,	0.001432,	0.000000
0.023486,	0.001416,	0.000000
0.023970,	0.001400,	0.000000
0.024455,	0.001384,	0.000000
0.024939,	0.001367,	0.000000
0.025423,	0.001350,	0.000000
0.025907,	0.001331,	0.000000
0.026392,	0.001312,	0.000000
0.026876,	0.001293,	0.000000
0.027360,	0.001272,	0.000000
0.027844,	0.001251,	0.000000
0.028329,	0.001230,	0.000000
0.028813,	0.001208,	0.000000
0.029297,	0.001186,	0.000000
0.029781,	0.001162,	0.000000
0.030266,	0.001138,	0.000000
0.030750,	0.001113,	0.000000
0.031234,	0.001086,	0.000000
0.031718,	0.001059,	0.000000
0.032203,	0.001031,	0.000000
0.032687,	0.001003,	0.000000
0.033171,	0.000973,	0.000000
0.033655,	0.000943,	0.000000
0.034140,	0.000914,	0.000000
0.034624,	0.000885,	0.000000
0.035108,	0.000856,	0.000000
0.035592,	0.000826,	0.000000
0.036077,	0.000796,	0.000000
0.036561,	0.000767,	0.000000
0.037045,	0.000739,	0.000000
0.037529,	0.000709,	0.000000
0.038014,	0.000679,	0.000000
0.038498,	0.000650,	0.000000
0.038982,	0.000619,	0.000000
0.039466,	0.000590,	0.000000
0.039951,	0.000561,	0.000000
0.040435,	0.000532,	0.000000
0.040919,	0.000502,	0.000000
0.041403,	0.000472,	0.000000
0.041888,	0.000444,	0.000000
0.042372,	0.000415,	0.000000
0.042856,	0.000385,	0.000000
0.043340,	0.000355,	0.000000
0.043825,	0.000326,	0.000000
0.044309,	0.000301,	0.000000
0.044793,	0.000281,	0.000000
0.045277,	0.000268,	0.000000
0.045762,	0.000258,	0.000000
0.046246,	0.000254,	0.000000
0.046730,	0.000257,	0.000000
0.047214,	0.000264,	0.000000
0.047699,	0.000271,	0.000000
0.048183,	0.000278,	0.000000
0.048667,	0.000284,	0.000000
0.049151,	0.000291,	0.000000
0.049636,	0.000297,	0.000000
0.050120,	0.000303,	0.000000
0.050604,	0.000309,	0.000000
0.051088,	0.000316,	0.000000
0.051573,	0.000322,	0.000000
0.052057,	0.000328,	0.000000
0.052541,	0.000334,	0.000000
0.053025,	0.000340,	0.000000
0.053510,	0.000346,	0.000000
0.053994,	0.000352,	0.000000
0.054478,	0.000358,	0.000000
0.054962,	0.000363,	0.000000
0.055447,	0.000369,	0.000000
0.055931,	0.000375,	0.000000
0.056415,	0.000381,	0.000000
0.056899,	0.000387,	0.000000
0.057384,	0.000392,	0.000000
0.057868,	0.000398,	0.000000
0.058352,	0.000403,	0.000000
0.058836,	0.000409,	0.000000
0.059321,	0.000414,	0.000000
0.059805,	0.000419,	0.000000
0.060289,	0.000425,	0.000000
0.060773,	0.000430,	0.000000
0.061258,	0.000435,	0.000000
0.061742,	0.000440,	0.000000
0.062226,	0.000445,	0.000000
0.062710,	0.000450,	0.000000
0.063195,	0.000455,	0.000000
0.063679,	0.000459,	0.000000
0.064163,	0.000464,	0.000000
0.064647,	0.000469,	0.000000
0.065132,	0.000474,	0.000000
0.065616,	0.000478,	0.000000
0.066100,	0.000483,	0.000000
0.066584,	0.000487,	0.000000
0.067069,	0.000491,	0.000000
0.067553,	0.000496,	0.000000
0.068037,	0.000500,	0.000000
0.068521,	0.000505,	0.000000
0.069006,	0.000509,	0.000000
0.069490,	0.000513,	0.000000
0.069974,	0.000518,	0.000000
0.070458,	0.000522,	0.000000
0.070943,	0.000526,	0.000000
0.071427,	0.000529,	0.000000
0.071911,	0.000533,	0.000000
0.072395,	0.000536,	0.000000
0.072880,	0.000540,	0.000000
0.073364,	0.000544,	0.000000
0.073848,	0.000547,	0.000000
0.074332,	0.000551,	0.000000
0.074817,	0.000554,	0.000000
0.075301,	0.000558,	0.000000
0.075785,	0.000561,	0.000000
0.076269,	0.000565,	0.000000
0.076754,	0.000568,	0.000000
0.077238,	0.000571,	0.000000
0.077722,	0.000574,	0.000000
0.078206,	0.000576,	0.000000
0.078691,	0.000579,	0.000000
0.079175,	0.000582,	0.000000
0.079659,	0.000585,	0.000000
0.080143,	0.000588,	0.000000
0.080628,	0.000591,	0.000000
0.081112,	0.000593,	0.000000
0.081596,	0.000596,	0.000000
0.082080,	0.000598,	0.000000
0.082565,	0.000600,	0.000000
0.083049,	0.000603,	0.000000
0.083533,	0.000605,	0.000000
0.084017,	0.000607,	0.000000
0.084502,	0.000608,	0.000000
0.084986,	0.000610,	0.000000
0.085470,	0.000612,	0.000000
0.085954,	0.000614,	0.000000
0.086439,	0.000616,	0.000000
0.086923,	0.000618,	0.000000
0.087407,	0.000619,	0.000000
0.087891,	0.000621,	0.000000
0.088376,	0.000622,	0.000000
0.088860,	0.000624,	0.000000
0.089344,	0.000625,	0.000000
0.089828,	0.000626,	0.000000
0.090313,	0.000627,	0.000000
0.090797,	0.000628,	0.000000
0.091281,	0.000629,	0.000000
0.091765,	0.000630,	0.000000
0.092250,	0.000631,	0.000000
0.092734,	0.000632,	0.000000
0.093218,	0.000633,	0.000000
0.093702,	0.000633,	0.000000
0.094187,	0.000634,	0.000000
0.094671,	0.000634,	0.000000
0.095155,	0.000634,	0.000000
0.095639,	0.000634,	0.000000
0.096124,	0.000634,	0.000000
0.096608,	0.000635,	0.000000
0.000242,	0.002441,	0.000000
0.000726,	0.002441,	0.000000
0.001211,	0.002441,	0.000000
0.001695,	0.002441,	0.000000
0.002179,	0.002440,	0.000000
0.002663,	0.002440,	0.000000
0.003148,	0.002438,	0.000000
0.003632,	0.002436,	0.000000
0.004116,	0.002434,	0.000000
0.004600,	0.002432,	0.000000
0.005085,	0.002429,	0.000000
0.005569,	0.002426,	0.000000
0.006053,	0.002422,	0.000000
0.006537,	0.002419,	0.000000
0.007022,	0.002415,	0.000000
0.007506,	0.002410,	0.000000
0.007990,	0.002405,	0.000000
0.008474,	0.002399,	0.000000
0.008959,	0.002393,	0.000000
0.009443,	0.002386,	0.000000
0.009927,	0.002379,	0.000000
0.010411,	0.002371,	0.000000
0.010896,	0.002363,	0.000000
0.011380,	0.002355,	0.000000
0.011864,	0.002347,	0.000000
0.012348,	0.002337,	0.000000
0.012833,	0.002328,	0.000000
0.013317,	0.002317,	0.000000
0.013801,	0.002307,	0.000000
0.014285,	0.002295,	0.000000
0.014770,	0.002284,	0.000000
0.015254,	0.002271,	0.000000
0.015738,	0.002259,	0.000000
0.016222,	0.002246,	0.000000
0.016707,	0.002233,	0.000000
0.017191,	0.002219,	0.000000
0.017675,	0.002204,	0.000000
0.018159,	0.002189,	0.000000
0.018644,	0.002173,	0.000000
0.019128,	0.002156,	0.000000
0.019612,	0.002139,	0.000000
0.020096,	0.002122,	0.000000
0.020581,	0.002104,	0.000000
0.021065,	0.002085,	0.000000
0.021549,	0.002066,	0.000000
0.022033,	0.002047,	0.000000
0.022518,	0.002026,	0.000000
0.023002,	0.002005,	0.000000
0.023486,	0.001983,	0.000000
0.023970,	0.001961,	0.000000
0.024455,	0.001938,	0.000000
0.024939,	0.001914,	0.000000
0.025423,	0.001889,	0.000000
0.025907,	0.001864,	0.000000
0.026392,	0.001837,	0.000000
0.026876,	0.001810,	0.000000
0.027360,	0.001781,	0.000000
0.027844,	0.001752,	0.000000
0.028329,	0.001722,	0.000000
0.028813,	0.001691,	0.000000
0.029297,	0.001660,	0.000000
0.029781,	0.001627,	0.000000
0.030266,	0.001593,	0.000000
0.030750,	0.001558,	0.000000
0.031234,	0.001521,	0.000000
0.031718,	0.001483,	0.000000
0.032203,	0.001444,	0.000000
0.032687,	0.001404,	0.000000
0.033171,	0.001363,	0.000000
0.033655,	0.001321,	0.000000
0.034140,	0.001279,	0.000000
0.034624,	0.001239,	0.000000
0.035108,	0.001198,	0.000000
0.035592,	0.001156,	0.000000
0.036077,	0.001115,	0.000000
0.036561,	0.001074,	0.000000
0.037045,	0.001034,	0.000000
0.037529,	0.000992,	0.000000
0.038014,	0.000950,	0.000000
0.038498,	0.000909,	0.000000
0.038982,	0.000867,	0.000000
0.039466,	0.000826,	0.000000
0.039951,	0.000785,	0.000000
0.040435,	0.000745,	0.000000
0.040919,	0.000703,	0.000000
0.041403,	0.000661,	0.000000
0.041888,	0.000621,	0.000000
0.042372,	0.000581,	0.000000
0.042856,	0.000539,	0.000000
0.043340,	0.000497,	0.000000
0.043825,	0.000457,	0.000000
0.044309,	0.000422,	0.000000
0.044793,	0.000394,	0.000000
0.045277,	0.000375,	0.000000
0.045762,	0.000362,	0.000000
0.046246,	0.000356,	0.000000
0.046730,	0.000360,	0.000000
0.047214,	0.000370,	0.000000
0.047699,	0.000379,	0.000000
0.048183,	0.000389,	0.000000
0.048667,	0.000398,	0.000000
0.049151,	0.000407,	0.000000
0.049636,	0.000416,	0.000000
0.050120,	0.000424,	0.000000
0.050604,	0.000433,	0.000000
0.051088,	0.000442,	0.000000
0.051573,	0.000451,	0.000000
0.052057,	0.000460,	0.000000
0.052541,	0.000468,	0.000000
0.053025,	0.000476,	0.000000
0.053510,	0.000484,	0.000000
0.053994,	0.000493,	0.000000
0.054478,	0.000501,	0.000000
0.054962,	0.000509,	0.000000
0.055447,	0.000517,	0.000000
0.055931,	0.000525,	0.000000
0.056415,	0.000533,	0.000000
0.056899,	0.000541,	0.000000
0.057384,	0.000549,	0.000000
0.057868,	0.000557,	0.000000
0.058352,	0.000565,	0.000000
0.058836,	0.000572,	0.000000
0.059321,	0.000580,	0.000000
0.059805,	0.000587,	0.000000
0.060289,	0.000594,	0.000000
0.060773,	0.000602,	0.000000
0.061258,	0.000609,	0.000000
0.061742,	0.000616,	0.000000
0.062226,	0.000623,	0.000000
0.062710,	0.000630,	0.000000
0.063195,	0.000637,	0.000000
0.063679,	0.000643,	0.000000
0.064163,	0.000650,	0.000000
0.064647,	0.000657,	0.000000
0.065132,	0.000663,	0.000000
0.065616,	0.000670,	0.000000
0.066100,	0.000676,	0.000000
0.066584,	0.000682,	0.000000
0.067069,	0.000688,	0.000000
0.067553,	0.000694,	0.000000
0.068037,	0.000700,	0.000000
0.068521,	0.000706,	0.000000
0.069006,	0.000712,	0.000000
0.069490,	0.000719,	0.000000
0.069974,	0.000725,	0.000000
0.070458,	0.000730,	0.000000
0.070943,	0.000736,	0.000000
0.071427,	0.000741,	0.000000
0.071911,	0.000746,	0.000000
0.072395,	0.000751,	0.000000
0.072880,	0.000756,	0.000000
0.073364,	0.000761,	0.000000
0.073848,	0.000766,	0.000000
0.074332,	0.000771,	0.000000
0.074817,	0.000776,	0.000000
0.075301,	0.000781,	0.000000
0.075785,	0.000786,	0.000000
0.076269,	0.000790,	0.000000
0.076754,	0.000795,	0.000000
0.077238,	0.000799,	0.000000
0.077722,	0.000803,	0.000000
0.078206,	0.000807,	0.000000
0.078691,	0.000811,	0.000000
0.079175,	0.000815,	0.000000
0.079659,	0.000819,	0.000000
0.080143,	0.000823,	0.000000
0.080628,	0.000827,	0.000000
0.081112,	0.000830,	0.000000
0.081596,	0.000834,	0.000000
0.082080,	0.000837,	0.000000
0.082565,	0.000841,	0.000000
0.083049,	0.000844,	0.000000
0.083533,	0.000846,	0.000000
0.084017,	0.000849,	0.000000
0.084502,	0.000852,	0.000000
0.084986,	0.000855,	0.000000
0.085470,	0.000857,	0.000000
0.085954,	0.000860,	0.000000
0.086439,	0.000863,	0.000000
0.086923,	0.000865,	0.000000
0.087407,	0.000867,	0.000000
0.087891,	0.000869,	0.000000
0.088376,	0.000871,	0.000000
0.088860,	0.000873,	0.000000
0.089344,	0.000875,	0.000000
0.089828,	0.000876,	0.000000
0.090313,	0.000878,	0.000000
0.090797,	0.000879,	0.000000
0.091281,	0.000881,	0.000000
0.091765,	0.000882,	0.000000
0.092250,	0.000883,	0.000000
0.092734,	0.000885,	0.000000
0.093218,	0.000886,	0.000000
0.093702,	0.000886,	0.000000
0.094187,	0.000887,	0.000000
0.094671,	0.000887,	0.000000
0.095155,	0.000887,	0.000000
0.095639,	0.000887,	0.000000
0.096124,	0.000888,	0.000000
0.096608,	0.000889,	0.000000
0.000242,	0.003139,	0.000000
0.000726,	0.003139,	0.000000
0.001211,	0.003139,	0.000000
0.001695,	0.003138,	0.000000
0.002179,	0.003138,	0.000000
0.002663,	0.003137,	0.000000
0.003148,	0.003135,	0.000000
0.003632,	0.003132,	0.000000
0.004116,	0.003129,	0.000000
0.004600,	0.003126,	0.000000
0.005085,	0.003123,	0.000000
0.005569,	0.003119,	0.000000
0.006053,	0.003115,	0.000000
0.006537,	0.003110,	0.000000
0.007022,	0.003105,	0.000000
0.007506,	0.003099,	0.000000
0.007990,	0.003092,	0.000000
0.008474,	0.003084,	0.000000
0.008959,	0.003077,	0.000000
0.009443,	0.003068,	0.000000
0.009927,	0.003058,	0.000000
0.010411,	0.003049,	0.000000
0.010896,	0.003038,	0.000000
0.011380,	0.003028,	0.000000
0.011864,	0.003017,	0.000000
0.012348,	0.003005,	0.000000
0.012833,	0.002993,	0.000000
0.013317,	0.002980,	0.000000
0.013801,	0.002966,	0.000000
0.014285,	0.002951,	0.000000
0.014770,	0.002936,	0.000000
0.015254,	0.002920,	0.000000
0.015738,	0.002904,	0.000000
0.016222,	0.002888,	0.000000
0.016707,	0.002871,	0.000000
0.017191,	0.002853,	0.000000
0.017675,	0.002834,	0.000000
0.018159,	0.002814,	0.000000
0.018644,	0.002793,	0.000000
0.019128,	0.002772,	0.000000
0.019612,	0.002751,	0.000000
0.020096,	0.002728,	0.000000
0.020581,	0.002705,	0.000000
0.021065,	0.002681,	0.000000
0.021549,	0.002657,	0.000000
0.022033,	0.002631,	0.000000
0.022518,	0.002605,	0.000000
0.023002,	0.002578,	0.000000
0.023486,	0.002550,	0.000000
0.023970,	0.002521,	0.000000
0.024455,	0.002491,	0.000000
0.024939,	0.002461,	0.000000
0.025423,	0.002429,	0.000000
0.025907,	0.002396,	0.000000
0.026392,	0.002362,	0.000000
0.026876,	0.002327,	0.000000
0.027360,	0.002290,	0.000000
0.027844,	0.002253,	0.000000
0.028329,	0.002214,	0.000000
0.028813,	0.002175,	0.000000
0.029297,	0.002135,	0.000000
0.029781,	0.002092,	0.000000
0.030266,	0.002048,	0.000000
0.030750,	0.002003,	0.000000
0.031234,	0.001955,	0.000000
0.031718,	0.001906,	0.000000
0.032203,	0.001856,	0.000000
0.032687,	0.001805,	0.000000
0.033171,	0.001752,	0.000000
0.033655,	0.001698,	0.000000
0.034140,	0.001645,	0.000000
0.034624,	0.001593,	0.000000
0.035108,	0.001541,	0.000000
0.035592,	0.001487,	0.000000
0.036077,	0.001433,	0.000000
0.036561,	0.001381,	0.000000
0.037045,	0.001330,	0.000000
0.037529,	0.001276,	0.000000
0.038014,	0.001222,	0.000000
0.038498,	0.001169,	0.000000
0.038982,	0.001115,	0.000000
0.039466,	0.001062,	0.000000
0.039951,	0.001010,	0.000000
0.040435,	0.000958,	0.000000
0.040919,	0.000904,	0.000000
0.041403,	0.000850,	0.000000
0.041888,	0.000798,	0.000000
0.042372,	0.000747,	0.000000
0.042856,	0.000693,	0.000000
0.043340,	0.000639,	0.000000
0.043825,	0.000588,	0.000000
0.044309,	0.000542,	0.000000
0.044793,	0.000507,	0.000000
0.045277,	0.000482,	0.000000
0.045762,	0.000465,	0.000000
0.046246,	0.000458,	0.000000
0.046730,	0.000463,	0.000000
0.047214,	0.000475,	0.000000
0.047699,	0.000487,	0.000000
0.048183,	0.000500,	0.000000
0.048667,	0.000511,	0.000000
0.049151,	0.000523,	0.000000
0.049636,	0.000534,	0.000000
0.050120,	0.000546,	0.000000
0.050604,	0.000557,	0.000000
0.051088,	0.000568,	0.000000
0.051573,	0.000580,	0.000000
0.052057,	0.000591,	0.000000
0.052541,	0.000602,	0.000000
0.053025,	0.000612,	0.000000
0.053510,	0.000623,	0.000000
0.053994,	0.000633,	0.000000
0.054478,	0.000644,	0.000000
0.054962,	0.000654,	0.000000
0.055447,	0.000665,	0.000000
0.055931,	0.000675,	0.000000
0.056415,	0.000686,	0.000000
0.056899,	0.000696,	0.000000
0.057384,	0.000706,	0.000000
0.057868,	0.000716,	0.000000
0.058352,	0.000726,	0.000000
0.058836,	0.000736,	0.000000
0.059321,	0.000745,	0.000000
0.059805,	0.000755,	0.000000
0.060289,	0.000764,	0.000000
0.060773,	0.000774,	0.000000
0.061258,	0.000783,	0.000000
0.061742,	0.000792,	0.000000
0.062226,	0.000801,	0.000000
0.062710,	0.000810,	0.000000
0.063195,	0.000818,	0.000000
0.063679,	0.000827,	0.000000
0.064163,	0.000836,	0.000000
0.064647,	0.000845,	0.000000
0.065132,	0.000853,	0.000000
0.065616,	0.000861,	0.000000
0.066100,	0.000869,	0.000000
0.066584,	0.000877,	0.000000
0.067069,	0.000885,	0.000000
0.067553,	0.000892,	0.000000
0.068037,	0.000900,	0.000000
0.068521,	0.000908,	0.000000
0.069006,	0.000916,	0.000000
0.069490,	0.000924,	0.000000
0.069974,	0.000932,	0.000000
0.070458,	0.000939,	0.000000
0.070943,	0.000946,	0.000000
0.071427,	0.000953,	0.000000
0.071911,	0.000959,	0.000000
0.072395,	0.000965,	0.000000
0.072880,	0.000972,	0.000000
0.073364,	0.000979,	0.000000
0.073848,	0.000985,	0.000000
0.074332,	0.000992,	0.000000
0.074817,	0.000998,	0.000000
0.075301,	0.001004,	0.000000
0.075785,	0.001010,	0.000000
0.076269,	0.001016,	0.000000
0.076754,	0.001022,	0.000000
0.077238,	0.001027,	0.000000
0.077722,	0.001032,	0.000000
0.078206,	0.001038,	0.000000
0.078691,	0.001043,	0.000000
0.079175,	0.001048,	0.000000
0.079659,	0.001053,	0.000000
0.080143,	0.001059,	0.000000
0.080628,	0.001063,	0.000000
0.081112,	0.001068,	0.000000
0.081596,	0.001072,	0.000000
0.082080,	0.001076,	0.000000
0.082565,	0.001081,	0.000000
0.083049,	0.001085,	0.000000
0.083533,	0.001088,	0.000000
0.084017,	0.001092,	0.000000
0.084502,	0.001095,	0.000000
0.084986,	0.001099,	0.000000
0.085470,	0.001102,	0.000000
0.085954,	0.001106,	0.000000
0.086439,	0.001109,	0.000000
0.086923,	0.001112,	0.000000
0.087407,	0.001115,	0.000000
0.087891,	0.001117,	0.000000
0.088376,	0.001120,	0.000000
0.088860,	0.001123,	0.000000
0.089344,	0.001125,	0.000000
0.089828,	0.001127,	0.000000
0.090313,	0.001129,	0.000000
0.090797,	0.001130,	0.000000
0.091281,	0.001132,	0.000000
0.091765,	0.001134,	0.000000
0.092250,	0.001136,	0.000000
0.092734,	0.001137,	0.000000
0.093218,	0.001139,	0.000000
0.093702,	0.001140,	0.000000
0.094187,	0.001140,	0.000000
0.094671,	0.001141,	0.000000
0.095155,	0.001141,	0.000000
0.095639,	0.001141,	0.000000
0.096124,	0.001142,	0.000000
0.096608,	0.001143,	0.000000
0.000242,	0.003836,	0.000000
0.000726,	0.003836,	0.000000
0.001211,	0.003836,	0.000000
0.001695,	0.003836,	0.000000
0.002179,	0.003835,	0.000000
0.002663,	0.003834,	0.000000
0.003148,	0.003832,	0.000000
0.003632,	0.003828,	0.000000
0.004116,	0.003825,	0.000000
0.004600,	0.003821,	0.000000
0.005085,	0.003817,	0.000000
0.005569,	0.003812,	0.000000
0.006053,	0.003807,	0.000000
0.006537,	0.003801,	0.000000
0.007022,	0.003795,	0.000000
0.007506,	0.003787,	0.000000
0.007990,	0.003779,	0.000000
0.008474,	0.003770,	0.000000
0.008959,	0.003760,	0.000000
0.009443,	0.003750,	0.000000
0.009927,	0.003738,	0.000000
0.010411,	0.003726,	0.000000
0.010896,	0.003714,	0.000000
0.011380,	0.003701,	0.000000
0.011864,	0.003687,	0.000000
0.012348,	0.003673,	0.000000
0.012833,	0.003658,	0.000000
0.013317,	0.003642,	0.000000
0.013801,	0.003625,	0.000000
0.014285,	0.003607,	0.000000
0.014770,	0.003588,	0.000000