TITLE = "Final State"
VARIABLES = "X", "Y", "rho", "u", "v", "T", "p", "c", "M"
ZONE I=100, J=100, DATAPACKING=POINT
0.015000,	 0.007425,	 1.000000,	 1000.000000,	 0.000000,	 300.000000,	 86129.212707,	 347.247603,	 2.879789 
0.045000,	 0.007425,	 1.000000,	 1000.000000,	 0.000000,	 300.000000,	 86129.212707,	 347.247603,	 2.879789 
0.075000,	 0.007425,	 1.000000,	 1000.000000,	 0.000000,	 300.000000,	 86129.212707,	 347.247603,	 2.879789 
0.105000,	 0.007425,	 1.000000,	 1000.000000,	 0.000000,	 300.000000,	 86129.212707,	 347.247603,	 2.879789 
0.135000,	 0.007425,	 1.000000,	 1000.000000,	 0.000000,	 300.000000,	 86129.212707,	 347.247603,	 2.879789 
0.165000,	 0.007425,	 1.000000,	 1000.000000,	 0.000000,	 300.000000,	 86129.212707,	 347.247603,	 2.879789 
0.195000,	 0.007425,	 1.000000,	 1000.000000,	 0.000000,	 300.000000,	 86129.212707,	 347.247603,	 2.879789 
0.225000,	 0.007425,	 1.000000,	 1000.000000,	 0.000000,	 300.000000,	 86129.212707,	 347.247603,	 2.879789 
0.255000,	 0.007425,	 1.000000,	 1000.000000,	 0.000000,	 300.000000,	 86129.212707,	 347.247603,	 2.879789 
0.285000,	 0.007425,	 1.000000,	 1000.000000,	 0.000000,	 300.000000,	 86129.212707,	 347.247603,	 2.879789 
0.315000,	 0.007425,	 1.000000,	 1000.000000,	 0.000000,	 300.000000,	 86129.212707,	 347.247603,	 2.879789 
0.345000,	 0.007425,	 1.000000,	 1000.000000,	 0.000000,	 300.000000,	 86129.212707,	 347.247603,	 2.879789 
0.375000,	 0.007425,	 1.000000,	 1000.000000,	 0.000000,	 300.000000,	 86129.212707,	 347.247603,	 2.879789 
0.405000,	 0.007425,	 1.000000,	 1000.000000,	 0.000000,	 300.000000,	 86129.212707,	 347.247603,	 2.879789 
0.435000,	 0.007425,	 1.000000,	 1000.000000,	 0.000000,	 300.000000,	 86129.212707,	 347.247603,	 2.879789 
0.465000,	 0.007425,	 1.000000,	 1000.000000,	 0.000000,	 300.000000,	 86129.212707,	 347.247603,	 2.879789 
0.495000,	 0.007425,	 1.000000,	 1000.000000,	 0.000000,	 300.000000,	 86129.212707,	 347.247603,	 2.879789 
0.525000,	 0.007425,	 1.000000,	 1000.000000,	 0.000000,	 300.000000,	 86129.212707,	 347.247603,	 2.879789 
0.555000,	 0.007425,	 1.000000,	 1000.000000,	 0.000000,	 300.000000,	 86129.212707,	 347.247603,	 2.879789 
0.585000,	 0.007425,	 1.000000,	 1000.000000,	 0.000000,	 300.000000,	 86129.212707,	 347.247603,	 2.879789 
0.615000,	 0.007425,	 1.000000,	 1000.000000,	 0.000000,	 300.000000,	 86129.212707,	 347.247603,	 2.879789 
0.645000,	 0.007425,	 1.000000,	 1000.000000,	 0.000000,	 300.000000,	 86129.212707,	 347.247603,	 2.879789 
0.675000,	 0.007425,	 1.000000,	 1000.000000,	 0.000000,	 300.000000,	 86129.212707,	 347.247603,	 2.879789 
0.705000,	 0.007425,	 1.000000,	 1000.000000,	 0.000000,	 300.000000,	 86129.212707,	 347.247603,	 2.879789 
0.735000,	 0.007425,	 1.000000,	 1000.000000,	 0.000000,	 300.000000,	 86129.212707,	 347.247603,	 2.879789 
0.765000,	 0.007425,	 1.000000,	 1000.000000,	 0.000000,	 300.000000,	 86129.212707,	 347.247603,	 2.879789 
0.795000,	 0.007425,	 1.000000,	 1000.000000,	 0.000000,	 300.000000,	 86129.212707,	 347.247603,	 2.879789 
0.825000,	 0.007425,	 1.000000,	 1000.000000,	 0.000000,	 300.000000,	 86129.212707,	 347.247603,	 2.879789 
0.855000,	 0.007425,	 1.000000,	 1000.000000,	 0.000000,	 300.000000,	 86129.212707,	 347.247603,	 2.879789 
0.885000,	 0.007425,	 1.000000,	 1000.000000,	 0.000000,	 300.000000,	 86129.212707,	 347.247603,	 2.879789 
0.915000,	 0.007425,	 1.000000,	 1000.000000,	 0.000000,	 300.000000,	 86129.212707,	 347.247603,	 2.879789 
0.945000,	 0.007425,	 1.000000,	 1000.000000,	 0.000000,	 300.000000,	 86129.212707,	 347.247603,	 2.879789 
0.975000,	 0.007425,	 1.000000,	 1000.000000,	 0.000000,	 300.000000,	 86129.212707,	 347.247603,	 2.879789 
1.005000,	 0.009913,	 1.267749,	 952.282288,	 88.669641,	 342.372446,	 124612.406153,	 370.960811,	 2.578174 
1.035000,	 0.016133,	 1.597949,	 898.933516,	 165.278030,	 381.629085,	 175078.770805,	 391.651110,	 2.333713 
1.065000,	 0.023595,	 1.765302,	 877.415824,	 193.643193,	 395.470126,	 200429.571959,	 398.690117,	 2.253705 
1.095000,	 0.031058,	 1.843686,	 867.598175,	 205.885792,	 401.504621,	 212523.358750,	 401.720416,	 2.219684 
1.125000,	 0.038521,	 1.877774,	 863.138009,	 211.289085,	 404.197447,	 217904.436853,	 403.065301,	 2.204662 
1.155000,	 0.045984,	 1.891555,	 861.226481,	 213.590150,	 405.339530,	 220123.895603,	 403.634341,	 2.198319 
1.185000,	 0.053447,	 1.896766,	 860.468137,	 214.511122,	 405.788421,	 220974.795216,	 403.857781,	 2.195831 
1.215000,	 0.060909,	 1.898654,	 860.187181,	 214.849995,	 405.954860,	 221285.466249,	 403.940596,	 2.194909 
1.245000,	 0.068373,	 1.899368,	 860.084142,	 214.960318,	 406.018808,	 221403.551166,	 403.972410,	 2.194555 
1.275000,	 0.075836,	 1.899710,	 860.041068,	 214.988423,	 406.049348,	 221460.069117,	 403.987603,	 2.194386 
1.305000,	 0.083298,	 1.899947,	 860.016083,	 214.990477,	 406.070080,	 221499.004012,	 403.997916,	 2.194271 
1.335000,	 0.090761,	 1.900154,	 859.996166,	 214.986198,	 406.087858,	 221532.802533,	 404.006759,	 2.194173 
1.365000,	 0.098224,	 1.900345,	 859.978062,	 214.981527,	 406.104183,	 221564.019480,	 404.014880,	 2.194082 
1.395000,	 0.105687,	 1.900521,	 859.961339,	 214.977773,	 406.119144,	 221592.692699,	 404.022322,	 2.194000 
1.425000,	 0.113150,	 1.900681,	 859.946085,	 214.974890,	 406.132675,	 221618.642755,	 404.029053,	 2.193925 
1.455000,	 0.120612,	 1.900823,	 859.932377,	 214.972625,	 406.144766,	 221641.836939,	 404.035067,	 2.193858 
1.485000,	 0.128075,	 1.900950,	 859.920129,	 214.970728,	 406.155543,	 221662.508273,	 404.040427,	 2.193798 
1.515000,	 0.135539,	 1.901063,	 859.909210,	 214.969074,	 406.165142,	 221680.919441,	 404.045201,	 2.193745 
1.545000,	 0.143001,	 1.901164,	 859.899454,	 214.967583,	 406.173721,	 221697.372137,	 404.049469,	 2.193697 
1.575000,	 0.150464,	 1.901254,	 859.890735,	 214.966238,	 406.181391,	 221712.080087,	 404.053283,	 2.193655 
1.605000,	 0.157927,	 1.901335,	 859.882903,	 214.964996,	 406.188287,	 221725.303765,	 404.056714,	 2.193617 
1.635000,	 0.165390,	 1.901408,	 859.875847,	 214.963854,	 406.194506,	 221737.224792,	 404.059806,	 2.193582 
1.665000,	 0.172853,	 1.901474,	 859.869464,	 214.962798,	 406.200136,	 221748.015842,	 404.062607,	 2.193551 
1.695000,	 0.180316,	 1.901534,	 859.863696,	 214.961840,	 406.205223,	 221757.766461,	 404.065137,	 2.193523 
1.725000,	 0.187779,	 1.901588,	 859.858458,	 214.960949,	 406.209849,	 221766.628636,	 404.067438,	 2.193498 
1.755000,	 0.195241,	 1.901638,	 859.853693,	 214.960128,	 406.214059,	 221774.694092,	 404.069532,	 2.193474 
1.785000,	 0.202704,	 1.901683,	 859.849341,	 214.959367,	 406.217905,	 221782.060435,	 404.071445,	 2.193453 
1.815000,	 0.210167,	 1.901724,	 859.845383,	 214.958679,	 406.221403,	 221788.757592,	 404.073184,	 2.193434 
1.845000,	 0.217630,	 1.901762,	 859.841763,	 214.958036,	 406.224605,	 221794.886730,	 404.074777,	 2.193416 
1.875000,	 0.225093,	 1.901796,	 859.838450,	 214.957443,	 406.227538,	 221800.497646,	 404.076235,	 2.193400 
1.905000,	 0.232556,	 1.901828,	 859.835406,	 214.956891,	 406.230232,	 221805.651849,	 404.077576,	 2.193385 
1.935000,	 0.240019,	 1.901856,	 859.832628,	 214.956395,	 406.232690,	 221810.350397,	 404.078798,	 2.193371 
1.965000,	 0.247481,	 1.901883,	 859.830078,	 214.955929,	 406.234948,	 221814.666657,	 404.079921,	 2.193359 
1.995000,	 0.253700,	 1.688455,	 884.949392,	 180.571341,	 391.333727,	 189699.408226,	 396.599597,	 2.277320 
2.025000,	 0.256188,	 1.266583,	 921.197471,	 101.303178,	 370.028435,	 134554.392687,	 385.652525,	 2.403072 
2.055000,	 0.256188,	 1.076421,	 941.632347,	 54.629487,	 354.787929,	 109642.797911,	 377.627007,	 2.497744 
2.085000,	 0.256188,	 0.988445,	 952.385970,	 28.036784,	 345.783434,	 98126.384825,	 372.804135,	 2.555762 
2.115000,	 0.256188,	 0.948135,	 957.818157,	 13.588064,	 340.935896,	 92805.171413,	 370.181741,	 2.587687 
2.145000,	 0.256188,	 0.930216,	 960.466571,	 6.183811,	 338.488317,	 90397.522225,	 368.850580,	 2.603999 
2.175000,	 0.256188,	 0.922563,	 961.710768,	 2.626086,	 337.317318,	 89343.684329,	 368.212009,	 2.611850 
2.205000,	 0.256188,	 0.919405,	 962.278046,	 1.033361,	 336.778666,	 88895.637899,	 367.917898,	 2.615471 
2.235000,	 0.256188,	 0.918081,	 962.538514,	 0.378168,	 336.530359,	 88702.224416,	 367.782240,	 2.617143 
2.265000,	 0.256188,	 0.917432,	 962.670807,	 0.138701,	 336.404041,	 88606.195264,	 367.713209,	 2.617994 
2.295000,	 0.256188,	 0.916988,	 962.755065,	 0.067851,	 336.323549,	 88542.212071,	 367.669215,	 2.618536 
2.325000,	 0.256188,	 0.916587,	 962.823785,	 0.056874,	 336.257888,	 88486.185087,	 367.633323,	 2.618979 
2.355000,	 0.256188,	 0.916184,	 962.888204,	 0.062047,	 336.196332,	 88431.092542,	 367.599672,	 2.619394 
2.385000,	 0.256188,	 0.915778,	 962.951023,	 0.068057,	 336.136300,	 88376.129023,	 367.566850,	 2.619798 
2.415000,	 0.256188,	 0.915379,	 963.012053,	 0.070925,	 336.077974,	 88322.240514,	 367.534959,	 2.620192 
2.445000,	 0.256188,	 0.914995,	 963.070450,	 0.070591,	 336.022161,	 88270.520510,	 367.504439,	 2.620568 
2.475000,	 0.256188,	 0.914632,	 963.125460,	 0.067965,	 335.969582,	 88221.776939,	 367.475686,	 2.620923 
2.505000,	 0.256188,	 0.914296,	 963.176567,	 0.063934,	 335.920731,	 88176.514053,	 367.448968,	 2.621253 
2.535000,	 0.256188,	 0.913988,	 963.223456,	 0.059112,	 335.875909,	 88135.020813,	 367.424453,	 2.621555 
2.565000,	 0.256188,	 0.913709,	 963.265945,	 0.053869,	 335.835291,	 88097.456700,	 367.402236,	 2.621829 
2.595000,	 0.256188,	 0.913460,	 963.303930,	 0.048411,	 335.798977,	 88063.906842,	 367.382372,	 2.622074 
2.625000,	 0.256188,	 0.913241,	 963.337364,	 0.042852,	 335.767012,	 88034.407006,	 367.364886,	 2.622290 
2.655000,	 0.256188,	 0.913052,	 963.366253,	 0.037275,	 335.739392,	 88008.946683,	 367.349776,	 2.622477 
2.685000,	 0.256188,	 0.912892,	 963.390667,	 0.031758,	 335.716050,	 87987.458911,	 367.337005,	 2.622634 
2.715000,	 0.256188,	 0.912761,	 963.410758,	 0.026396,	 335.696840,	 87969.803988,	 367.326496,	 2.622764 
2.745000,	 0.256188,	 0.912657,	 963.426779,	 0.021305,	 335.681522,	 87955.752642,	 367.318115,	 2.622868 
2.775000,	 0.256188,	 0.912577,	 963.439099,	 0.016620,	 335.669742,	 87944.972888,	 367.311670,	 2.622947 
2.805000,	 0.256188,	 0.912518,	 963.448211,	 0.012490,	 335.661030,	 87937.023673,	 367.306903,	 2.623006 
2.835000,	 0.256188,	 0.912477,	 963.454726,	 0.009062,	 335.654800,	 87931.357305,	 367.303494,	 2.623048 
2.865000,	 0.256188,	 0.912447,	 963.459365,	 0.006473,	 335.650364,	 87927.331549,	 367.301067,	 2.623078 
2.895000,	 0.256188,	 0.912424,	 963.462931,	 0.004834,	 335.646954,	 87924.231160,	 367.299202,	 2.623101 
2.925000,	 0.256188,	 0.912402,	 963.466278,	 0.004220,	 335.643755,	 87921.297523,	 367.297451,	 2.623123 
2.955000,	 0.256188,	 0.912376,	 963.470268,	 0.004659,	 335.639940,	 87917.764170,	 367.295364,	 2.623148 
2.985000,	 0.256188,	 0.912340,	 963.475787,	 0.006126,	 335.634664,	 87912.890735,	 367.292477,	 2.623184 
0.015000,	 0.022277,	 1.000000,	 1000.000000,	 0.000000,	 300.000000,	 86129.212707,	 347.247603,	 2.879789 
0.045000,	 0.022277,	 1.000000,	 1000.000000,	 0.000000,	 300.000000,	 86129.212707,	 347.247603,	 2.879789 
0.075000,	 0.022277,	 1.000000,	 1000.000000,	 0.000000,	 300.000000,	 86129.212707,	 347.247603,	 2.879789 
0.105000,	 0.022277,	 1.000000,	 1000.000000,	 0.000000,	 300.000000,	 86129.212707,	 347.247603,	 2.879789 
0.135000,	 0.022277,	 1.000000,	 1000.000000,	 0.000000,	 300.000000,	 86129.212707,	 347.247603,	 2.879789 
0.165000,	 0.022277,	 1.000000,	 1000.000000,	 0.000000,	 300.000000,	 86129.212707,	 347.247603,	 2.879789 
0.195000,	 0.022277,	 1.000000,	 1000.000000,	 0.000000,	 300.000000,	 86129.212707,	 347.247603,	 2.879789 
0.225000,	 0.022277,	 1.000000,	 1000.000000,	 0.000000,	 300.000000,	 86129.212707,	 347.247603,	 2.879789 
0.255000,	 0.022277,	 1.000000,	 1000.000000,	 0.000000,	 300.000000,	 86129.212707,	 347.247603,	 2.879789 
0.285000,	 0.022277,	 1.000000,	 1000.000000,	 0.000000,	 300.000000,	 86129.212707,	 347.247603,	 2.879789 
0.315000,	 0.022277,	 1.000000,	 1000.000000,	 0.000000,	 300.000000,	 86129.212707,	 347.247603,	 2.879789 
0.345000,	 0.022277,	 1.000000,	 1000.000000,	 0.000000,	 300.000000,	 86129.212707,	 347.247603,	 2.879789 
0.375000,	 0.022277,	 1.000000,	 1000.000000,	 0.000000,	 300.000000,	 86129.212707,	 347.247603,	 2.879789 
0.405000,	 0.022277,	 1.000000,	 1000.000000,	 0.000000,	 300.000000,	 86129.212707,	 347.247603,	 2.879789 
0.435000,	 0.022277,	 1.000000,	 1000.000000,	 0.000000,	 300.000000,	 86129.212707,	 347.247603,	 2.879789 
0.465000,	 0.022277,	 1.000000,	 1000.000000,	 0.000000,	 300.000000,	 86129.212707,	 347.247603,	 2.879789 
0.495000,	 0.022277,	 1.000000,	 1000.000000,	 0.000000,	 300.000000,	 86129.212707,	 347.247603,	 2.879789 
0.525000,	 0.022277,	 1.000000,	 1000.000000,	 0.000000,	 300.000000,	 86129.212707,	 347.247603,	 2.879789 
0.555000,	 0.022277,	 1.000000,	 1000.000000,	 0.000000,	 300.000000,	 86129.212707,	 347.247603,	 2.879789 
0.585000,	 0.022277,	 1.000000,	 1000.000000,	 0.000000,	 300.000000,	 86129.212707,	 347.247603,	 2.879789 
0.615000,	 0.022277,	 1.000000,	 1000.000000,	 0.000000,	 300.000000,	 86129.212707,	 347.247603,	 2.879789 
0.645000,	 0.022277,	 1.000000,	 1000.000000,	 0.000000,	 300.000000,	 86129.212707,	 347.247603,	 2.879789 
0.675000,	 0.022277,	 1.000000,	 1000.000000,	 0.000000,	 300.000000,	 86129.212707,	 347.247603,	 2.879789 
0.705000,	 0.022277,	 1.000000,	 1000.000000,	 0.000000,	 300.000000,	 86129.212707,	 347.247603,	 2.879789 
0.735000,	 0.022277,	 1.000000,	 1000.000000,	 0.000000,	 300.000000,	 86129.212707,	 347.247603,	 2.879789 
0.765000,	 0.022277,	 1.000000,	 1000.000000,	 0.000000,	 300.000000,	 86129.212707,	 347.247603,	 2.879789 
0.795000,	 0.022277,	 1.000000,	 1000.000000,	 0.000000,	 300.000000,	 86129.212707,	 347.247603,	 2.879789 
0.825000,	 0.022277,	 1.000000,	 1000.000000,	 0.000000,	 300.000000,	 86129.212707,	 347.247603,	 2.879789 
0.855000,	 0.022277,	 1.000000,	 1000.000000,	 0.000000,	 300.000000,	 86129.212707,	 347.247603,	 2.879789 
0.885000,	 0.022277,	 1.000000,	 1000.000000,	 0.000000,	 300.000000,	 86129.212707,	 347.247603,	 2.879789 
0.915000,	 0.022277,	 1.000000,	 1000.000000,	 0.000000,	 300.000000,	 86129.212707,	 347.247603,	 2.879789 
0.945000,	 0.022277,	 1.000000,	 1000.000000,	 0.000000,	 300.000000,	 86129.212707,	 347.247603,	 2.879789 
0.975000,	 0.022277,	 1.000000,	 1000.000000,	 0.000000,	 300.000000,	 86129.212707,	 347.247603,	 2.879789 
1.005000,	 0.024740,	 1.106991,	 979.268801,	 39.901184,	 319.609044,	 101576.309858,	 358.416636,	 2.734475 
1.035000,	 0.030897,	 1.321424,	 937.785747,	 105.226753,	 354.362430,	 134437.118810,	 377.400494,	 2.500450 
1.065000,	 0.038286,	 1.534789,	 904.376947,	 154.123892,	 378.539414,	 166797.250512,	 390.062484,	 2.351972 
1.095000,	 0.045674,	 1.690338,	 883.219467,	 183.080671,	 392.392674,	 190424.853846,	 397.135833,	 2.271251 
1.125000,	 0.053063,	 1.786442,	 870.876078,	 198.937396,	 400.082427,	 205195.387975,	 401.008305,	 2.227657 
1.155000,	 0.060452,	 1.839571,	 864.105996,	 207.144982,	 404.228031,	 213487.352663,	 403.080550,	 2.204492 
1.185000,	 0.067840,	 1.866612,	 860.622268,	 211.157954,	 406.360755,	 217768.531292,	 404.142486,	 2.192662 
1.215000,	 0.075229,	 1.879541,	 858.941870,	 213.008930,	 407.397108,	 219836.055968,	 404.657506,	 2.186935 
1.245000,	 0.082618,	 1.885473,	 858.182267,	 213.815466,	 407.869867,	 220785.820467,	 404.892227,	 2.184328 
1.275000,	 0.090006,	 1.888156,	 857.854739,	 214.149626,	 408.076200,	 221211.785807,	 404.994628,	 2.183190 
1.305000,	 0.097395,	 1.889401,	 857.717745,	 214.282202,	 408.163954,	 221405.345129,	 405.038171,	 2.182707 
1.335000,	 0.104783,	 1.890034,	 857.660770,	 214.333216,	 408.201310,	 221499.790989,	 405.056706,	 2.182501 
1.365000,	 0.112172,	 1.890413,	 857.636490,	 214.353268,	 408.217584,	 221552.949763,	 405.064780,	 2.182411 
1.395000,	 0.119561,	 1.890683,	 857.625504,	 214.362351,	 408.224945,	 221588.689972,	 405.068432,	 2.182371 
1.425000,	 0.126949,	 1.890906,	 857.620436,	 214.367884,	 408.228057,	 221616.468754,	 405.069976,	 2.182354 
1.455000,	 0.134338,	 1.891102,	 857.618127,	 214.372222,	 408.229092,	 221639.940691,	 405.070489,	 2.182348 
1.485000,	 0.141727,	 1.891279,	 857.617715,	 214.376174,	 408.228605,	 221660.515167,	 405.070248,	 2.182350 
1.515000,	 0.149115,	 1.891443,	 857.618775,	 214.379949,	 408.226913,	 221678.797220,	 405.069408,	 2.182360 
1.545000,	 0.156504,	 1.891596,	 857.621245,	 214.383639,	 408.224048,	 221695.140699,	 405.067987,	 2.182376 
1.575000,	 0.163892,	 1.891738,	 857.624617,	 214.387129,	 408.220463,	 221709.819728,	 405.066208,	 2.182395 
1.605000,	 0.171281,	 1.891871,	 857.628933,	 214.390507,	 408.216105,	 221723.027086,	 405.064046,	 2.182419 
1.635000,	 0.178670,	 1.891996,	 857.634079,	 214.393802,	 408.211063,	 221734.930696,	 405.061545,	 2.182447 
1.665000,	 0.186058,	 1.892114,	 857.640125,	 214.397092,	 408.205262,	 221745.679043,	 405.058667,	 2.182479 
1.695000,	 0.193447,	 1.892226,	 857.646638,	 214.400257,	 408.199093,	 221755.432132,	 405.055606,	 2.182513 
1.725000,	 0.200836,	 1.892332,	 857.653719,	 214.403377,	 408.192454,	 221764.290098,	 405.052312,	 2.182550 
1.755000,	 0.208224,	 1.892434,	 857.661304,	 214.406474,	 408.185394,	 221772.343526,	 405.048809,	 2.182589 
1.785000,	 0.215613,	 1.892532,	 857.669510,	 214.409613,	 408.177801,	 221779.670663,	 405.045041,	 2.182630 
1.815000,	 0.223001,	 1.892625,	 857.677942,	 214.412666,	 408.170035,	 221786.374612,	 405.041188,	 2.182673 
1.845000,	 0.230390,	 1.892714,	 857.686734,	 214.415705,	 408.161967,	 221792.503817,	 405.037185,	 2.182718 
1.875000,	 0.237779,	 1.892801,	 857.695851,	 214.418743,	 408.153625,	 221798.108021,	 405.033046,	 2.182764 
1.905000,	 0.245167,	 1.892885,	 857.705432,	 214.421843,	 408.144878,	 221803.228848,	 405.028706,	 2.182812 
1.935000,	 0.252556,	 1.892966,	 857.715103,	 214.424870,	 408.136070,	 221807.940334,	 405.024336,	 2.182860 
1.965000,	 0.259944,	 1.893045,	 857.725016,	 214.427898,	 408.127058,	 221812.260985,	 405.019864,	 2.182910 
1.995000,	 0.266101,	 1.775362,	 873.571190,	 194.011617,	 398.719027,	 203227.836476,	 400.324444,	 2.235327 
2.025000,	 0.268564,	 1.497513,	 903.098714,	 140.444516,	 381.671737,	 164092.967155,	 391.672996,	 2.333462 
2.055000,	 0.268564,	 1.288188,	 926.540712,	 94.028843,	 365.847039,	 135303.196929,	 383.467358,	 2.428628 
2.085000,	 0.268564,	 1.149362,	 942.898227,	 59.685092,	 353.319759,	 116588.073524,	 376.844857,	 2.507094 
2.115000,	 0.268564,	 1.061430,	 953.628335,	 36.174901,	 344.350228,	 104935.168924,	 372.030732,	 2.565149 
2.145000,	 0.268564,	 1.007569,	 960.391249,	 20.983307,	 338.360628,	 97877.760695,	 368.781003,	 2.604853 
2.175000,	 0.268564,	 0.975649,	 964.514638,	 11.675876,	 334.573061,	 93715.975208,	 366.711149,	 2.630368 
2.205000,	 0.268564,	 0.957333,	 966.950225,	 6.265005,	 332.286409,	 91328.153864,	 365.455850,	 2.645930 
2.235000,	 0.268564,	 0.947118,	 968.347038,	 3.277346,	 330.958677,	 89992.620413,	 364.724985,	 2.655021 
2.265000,	 0.268564,	 0.941529,	 969.130358,	 1.707661,	 330.209134,	 89259.004681,	 364.311743,	 2.660172 
2.295000,	 0.268564,	 0.938477,	 969.566648,	 0.920963,	 329.790237,	 88856.766744,	 364.080590,	 2.663056 
2.325000,	 0.268564,	 0.936762,	 969.814735,	 0.543352,	 329.551640,	 88630.221325,	 363.948864,	 2.664701 
2.355000,	 0.268564,	 0.935728,	 969.964523,	 0.368140,	 329.407463,	 88493.719960,	 363.869242,	 2.665695 
2.385000,	 0.268564,	 0.935034,	 970.064369,	 0.287502,	 329.311318,	 88402.256507,	 363.816137,	 2.666359 
2.415000,	 0.268564,	 0.934508,	 970.139003,	 0.248232,	 329.239434,	 88333.271980,	 363.776427,	 2.666855 
2.445000,	 0.268564,	 0.934071,	 970.200425,	 0.225559,	 329.180268,	 88276.019063,	 363.743739,	 2.667264 
2.475000,	 0.268564,	 0.933685,	 970.254127,	 0.208691,	 329.128534,	 88225.672018,	 363.715155,	 2.667621 
2.505000,	 0.268564,	 0.933336,	 970.302441,	 0.193312,	 329.081987,	 88180.226869,	 363.689434,	 2.667942 
2.535000,	 0.268564,	 0.933018,	 970.346256,	 0.177904,	 329.039773,	 88138.948669,	 363.666107,	 2.668234 
2.565000,	 0.268564,	 0.932732,	 970.385841,	 0.162067,	 329.001632,	 88101.630534,	 363.645029,	 2.668498 
2.595000,	 0.268564,	 0.932475,	 970.421237,	 0.145799,	 328.967527,	 88068.255727,	 363.626181,	 2.668733 
2.625000,	 0.268564,	 0.932249,	 970.452425,	 0.129238,	 328.937475,	 88038.848254,	 363.609571,	 2.668941 
2.655000,	 0.268564,	 0.932053,	 970.479411,	 0.112576,	 328.911471,	 88013.405773,	 363.595198,	 2.669121 
2.685000,	 0.268564,	 0.931887,	 970.502261,	 0.096060,	 328.889453,	 87991.865842,	 363.583028,	 2.669273 
2.715000,	 0.268564,	 0.931750,	 970.521125,	 0.079994,	 328.871274,	 87974.085257,	 363.572980,	 2.669398 
2.745000,	 0.268564,	 0.931641,	 970.536256,	 0.064744,	 328.856692,	 87959.825745,	 363.564920,	 2.669499 
2.775000,	 0.268564,	 0.931555,	 970.548018,	 0.050724,	 328.845358,	 87948.745122,	 363.558654,	 2.669578 
2.805000,	 0.268564,	 0.931491,	 970.556886,	 0.038380,	 328.836812,	 87940.395007,	 363.553930,	 2.669637 
2.835000,	 0.268564,	 0.931444,	 970.563443,	 0.028153,	 328.830492,	 87934.226387,	 363.550437,	 2.669680 
2.865000,	 0.268564,	 0.931408,	 970.568365,	 0.020445,	 328.825749,	 87929.603681,	 363.547814,	 2.669713 
2.895000,	 0.268564,	 0.931379,	 970.572396,	 0.015582,	 328.821865,	 87925.827023,	 363.545667,	 2.669740 
2.925000,	 0.268564,	 0.931351,	 970.576314,	 0.013777,	 328.818089,	 87922.161489,	 363.543580,	 2.669766 
2.955000,	 0.268564,	 0.931318,	 970.580902,	 0.015110,	 328.813668,	 87917.871137,	 363.541136,	 2.669797 
2.985000,	 0.268564,	 0.931275,	 970.586900,	 0.019501,	 328.807888,	 87912.254420,	 363.537941,	 2.669837 
0.015000,	 0.037129,	 1.000000,	 1000.000000,	 0.000000,	 300.000000,	 86129.212707,	 347.247603,	 2.879789 
0.045000,	 0.037129,	 1.000000,	 1000.000000,	 0.000000,	 300.000000,	 86129.212707,	 347.247603,	 2.879789 
0.075000,	 0.037129,	 1.000000,	 1000.000000,	 0.000000,	 300.000000,	 86129.212707,	 347.247603,	 2.879789 
0.105000,	 0.037129,	 1.000000,	 1000.000000,	 0.000000,	 300.000000,	 86129.212707,	 347.247603,	 2.879789 
0.135000,	 0.037129,	 1.000000,	 1000.000000,	 0.000000,	 300.000000,	 86129.212707,	 347.247603,	 2.879789 
0.165000,	 0.037129,	 1.000000,	 1000.000000,	 0.000000,	 300.000000,	 86129.212707,	 347.247603,	 2.879789 
0.195000,	 0.037129,	 1.000000,	 1000.000000,	 0.000000,	 300.000000,	 86129.212707,	 347.247603,	 2.879789 
0.225000,	 0.037129,	 1.000000,	 1000.000000,	 0.000000,	 300.000000,	 86129.212707,	 347.247603,	 2.879789 
0.255000,	 0.037129,	 1.000000,	 1000.000000,	 0.000000,	 300.000000,	 86129.212707,	 347.247603,	 2.879789 
0.285000,	 0.037129,	 1.000000,	 1000.000000,	 0.000000,	 300.000000,	 86129.212707,	 347.247603,	 2.879789 
0.315000,	 0.037129,	 1.000000,	 1000.000000,	 0.000000,	 300.000000,	 86129.212707,	 347.247603,	 2.879789 
0.345000,	 0.037129,	 1.000000,	 1000.000000,	 0.000000,	 300.000000,	 86129.212707,	 347.247603,	 2.879789 
0.375000,	 0.037129,	 1.000000,	 1000.000000,	 0.000000,	 300.000000,	 86129.212707,	 347.247603,	 2.879789 
0.405000,	 0.037129,	 1.000000,	 1000.000000,	 0.000000,	 300.000000,	 86129.212707,	 347.247603,	 2.879789 
0.435000,	 0.037129,	 1.000000,	 1000.000000,	 0.000000,	 300.000000,	 86129.212707,	 347.247603,	 2.879789 
0.465000,	 0.037129,	 1.000000,	 1000.000000,	 0.000000,	 300.000000,	 86129.212707,	 347.247603,	 2.879789 
0.495000,	 0.037129,	 1.000000,	 1000.000000,	 0.000000,	 300.000000,	 86129.212707,	 347.247603,	 2.879789 
0.525000,	 0.037129,	 1.000000,	 1000.000000,	 0.000000,	 300.000000,	 86129.212707,	 347.247603,	 2.879789 
0.555000,	 0.037129,	 1.000000,	 1000.000000,	 0.000000,	 300.000000,	 86129.212707,	 347.247603,	 2.879789 
0.585000,	 0.037129,	 1.000000,	 1000.000000,	 0.000000,	 300.000000,	 86129.212707,	 347.247603,	 2.879789 
0.615000,	 0.037129,	 1.000000,	 1000.000000,	 0.000000,	 300.000000,	 86129.212707,	 347.247603,	 2.879789 
0.645000,	 0.037129,	 1.000000,	 1000.000000,	 0.000000,	 300.000000,	 86129.212707,	 347.247603,	 2.879789 
0.675000,	 0.037129,	 1.000000,	 1000.000000,	 0.000000,	 300.000000,	 86129.212707,	 347.247603,	 2.879789 
0.705000,	 0.037129,	 1.000000,	 1000.000000,	 0.000000,	 300.000000,	 86129.212707,	 347.247603,	 2.879789 
0.735000,	 0.037129,	 1.000000,	 1000.000000,	 0.000000,	 300.000000,	 86129.212707,	 347.247603,	 2.879789 
0.765000,	 0.037129,	 1.000000,	 1000.000000,	 0.000000,	 300.000000,	 86129.212707,	 347.247603,	 2.879789 
0.795000,	 0.037129,	 1.000000,	 1000.000000,	 0.000000,	 300.000000,	 86129.212707,	 347.247603,	 2.879789 
0.825000,	 0.037129,	 1.000000,	 1000.000000,	 0.000000,	 300.000000,	 86129.212707,	 347.247603,	 2.879789 
0.855000,	 0.037129,	 1.000000,	 1000.000000,	 0.000000,	 300.000000,	 86129.212707,	 347.247603,	 2.879789 
0.885000,	 0.037129,	 1.000000,	 1000.000000,	 0.000000,	 300.000000,	 86129.212707,	 347.247603,	 2.879789 
0.915000,	 0.037129,	 1.000000,	 1000.000000,	 0.000000,	 300.000000,	 86129.212707,	 347.247603,	 2.879789 
0.945000,	 0.037129,	 1.000000,	 1000.000000,	 0.000000,	 300.000000,	 86129.212707,	 347.247603,	 2.879789 
0.975000,	 0.037129,	 1.000000,	 1000.000000,	 -0.000000,	 300.000000,	 86129.212707,	 347.247603,	 2.879789 
1.005000,	 0.039567,	 1.038728,	 992.984887,	 14.596962,	 306.847956,	 91507.017530,	 351.188468,	 2.827804 
1.035000,	 0.045662,	 1.145618,	 971.786842,	 51.979270,	 326.308924,	 107324.241071,	 362.153849,	 2.687189 
1.065000,	 0.052976,	 1.320985,	 940.382669,	 103.003079,	 352.175298,	 133562.969651,	 376.234030,	 2.514411 
1.095000,	 0.060291,	 1.505288,	 911.746785,	 145.945044,	 373.136541,	 161256.224678,	 387.268809,	 2.384271 
1.125000,	 0.067605,	 1.655442,	 890.710243,	 175.222376,	 387.224417,	 184037.324715,	 394.511799,	 2.301025 
1.155000,	 0.074919,	 1.759203,	 876.876231,	 193.233979,	 396.015023,	 200012.419473,	 398.964689,	 2.250613 
1.185000,	 0.082234,	 1.822919,	 868.469064,	 203.571202,	 401.226579,	 209984.019837,	 401.581296,	 2.221241 
1.215000,	 0.089548,	 1.858708,	 863.698950,	 209.164561,	 404.160307,	 215672.194729,	 403.046782,	 2.204868 
1.245000,	 0.096863,	 1.877466,	 861.153912,	 212.030402,	 405.728078,	 218693.731774,	 403.827752,	 2.196165 
1.275000,	 0.104177,	 1.886812,	 859.872889,	 213.426993,	 406.521259,	 220212.103759,	 404.222292,	 2.191775 
1.305000,	 0.111491,	 1.891311,	 859.250213,	 214.080893,	 406.910761,	 220948.627387,	 404.415895,	 2.189621 
1.335000,	 0.118806,	 1.893432,	 858.950313,	 214.376622,	 407.102119,	 221300.501499,	 404.510976,	 2.188564 
1.365000,	 0.126120,	 1.894433,	 858.802584,	 214.506163,	 407.199724,	 221470.537492,	 404.559465,	 2.188025 
1.395000,	 0.133435,	 1.894920,	 858.724171,	 214.561302,	 407.254393,	 221557.213430,	 404.586622,	 2.187723 
1.425000,	 0.140749,	 1.895177,	 858.676875,	 214.584273,	 407.289538,	 221606.319854,	 404.604079,	 2.187529 
1.455000,	 0.148063,	 1.895328,	 858.643425,	 214.593650,	 407.315844,	 221638.393644,	 404.617145,	 2.187384 
1.485000,	 0.155378,	 1.895431,	 858.616578,	 214.597401,	 407.337754,	 221662.331507,	 404.628027,	 2.187263 
1.515000,	 0.162692,	 1.895508,	 858.593081,	 214.598740,	 407.357340,	 221681.932210,	 404.637755,	 2.187155 
1.545000,	 0.170006,	 1.895568,	 858.571773,	 214.599016,	 407.375300,	 221698.816607,	 404.646675,	 2.187056 
1.575000,	 0.177320,	 1.895618,	 858.551934,	 214.598694,	 407.392143,	 221713.737717,	 404.655040,	 2.186963 
1.605000,	 0.184635,	 1.895658,	 858.533422,	 214.598046,	 407.407933,	 221727.060339,	 404.662881,	 2.186876 
1.635000,	 0.191949,	 1.895691,	 858.515923,	 214.597120,	 407.422924,	 221739.048248,	 404.670327,	 2.186793 
1.665000,	 0.199264,	 1.895717,	 858.499462,	 214.596047,	 407.437069,	 221749.845850,	 404.677351,	 2.186715 
1.695000,	 0.206578,	 1.895738,	 858.483802,	 214.594800,	 407.450573,	 221759.620758,	 404.684057,	 2.186640 
1.725000,	 0.213892,	 1.895754,	 858.468996,	 214.593465,	 407.463373,	 221768.473712,	 404.690414,	 2.186570 
1.755000,	 0.221207,	 1.895766,	 858.454845,	 214.592017,	 407.475643,	 221776.527838,	 404.696507,	 2.186502 
1.785000,	 0.228521,	 1.895774,	 858.441421,	 214.590544,	 407.487304,	 221783.841375,	 404.702298,	 2.186438 
1.815000,	 0.235836,	 1.895779,	 858.428546,	 214.588998,	 407.498515,	 221790.516308,	 404.707865,	 2.186376 
1.845000,	 0.243150,	 1.895781,	 858.416299,	 214.587444,	 407.509198,	 221796.600733,	 404.713170,	 2.186317 
1.875000,	 0.250464,	 1.895781,	 858.404519,	 214.585846,	 407.519494,	 221802.172194,	 404.718282,	 2.186260 
1.905000,	 0.257779,	 1.895779,	 858.393296,	 214.584276,	 407.529313,	 221807.254277,	 404.723158,	 2.186206 
1.935000,	 0.265093,	 1.895775,	 858.382483,	 214.582681,	 407.538791,	 221811.915669,	 404.727865,	 2.186154 
1.965000,	 0.272407,	 1.895769,	 858.372113,	 214.581094,	 407.547893,	 221816.184518,	 404.732384,	 2.186103 
1.995000,	 0.278502,	 1.823728,	 867.997005,	 202.374929,	 401.869848,	 210414.054010,	 401.903086,	 2.217641 
2.025000,	 0.280940,	 1.623439,	 890.661986,	 165.892115,	 388.837868,	 181231.498098,	 395.332852,	 2.291688 
2.055000,	 0.280940,	 1.430221,	 912.690858,	 126.585498,	 374.893476,	 153936.052918,	 388.179477,	 2.373715 
2.085000,	 0.280940,	 1.277524,	 930.669639,	 91.890426,	 362.248599,	 132863.279072,	 381.576822,	 2.450870 
2.115000,	 0.280940,	 1.165826,	 944.246719,	 64.008374,	 351.793882,	 117747.376813,	 376.030239,	 2.516855 
2.145000,	 0.280940,	 1.087462,	 954.028011,	 42.928870,	 343.707223,	 107307.934264,	 371.683223,	 2.569374 