TITLE = "Initial State"
VARIABLES = "X", "Y", "rho", "u", "v", "e", "p", "c", "M"
ZONE I=300, J=100, DATAPACKING=POINT
0.008334,	 0.009901,	 1.000000,	 1.000000,	 0.000000,	 13.387172,	 5.154869,	 2.686413,	 0.372244 
0.025000,	 0.009901,	 1.000000,	 1.000000,	 0.000000,	 13.387172,	 5.154869,	 2.686413,	 0.372244 
0.041667,	 0.009901,	 1.000000,	 1.000000,	 0.000000,	 13.387172,	 5.154869,	 2.686413,	 0.372244 
0.058334,	 0.009901,	 1.000000,	 1.000000,	 0.000000,	 13.387172,	 5.154869,	 2.686413,	 0.372244 
0.075000,	 0.009901,	 1.000000,	 1.000000,	 0.000000,	 13.387172,	 5.154869,	 2.686413,	 0.372244 
0.091667,	 0.009901,	 1.000000,	 1.000000,	 0.000000,	 13.387172,	 5.154869,	 2.686413,	 0.372244 
0.108334,	 0.009901,	 1.000000,	 1.000000,	 0.000000,	 13.387172,	 5.154869,	 2.686413,	 0.372244 
0.125000,	 0.009901,	 1.000000,	 1.000000,	 0.000000,	 13.387172,	 5.154869,	 2.686413,	 0.372244 
0.141667,	 0.009901,	 1.000000,	 1.000000,	 0.000000,	 13.387172,	 5.154869,	 2.686413,	 0.372244 
0.158334,	 0.009901,	 1.000000,	 1.000000,	 0.000000,	 13.387172,	 5.154869,	 2.686413,	 0.372244 
0.175000,	 0.009901,	 1.000000,	 1.000000,	 0.000000,	 13.387172,	 5.154869,	 2.686413,	 0.372244 
0.191667,	 0.009901,	 1.000000,	 1.000000,	 0.000000,	 13.387172,	 5.154869,	 2.686413,	 0.372244 
0.208334,	 0.009901,	 1.000000,	 1.000000,	 0.000000,	 13.387172,	 5.154869,	 2.686413,	 0.372244 
0.225000,	 0.009901,	 1.000000,	 1.000000,	 0.000000,	 13.387172,	 5.154869,	 2.686413,	 0.372244 
0.241667,	 0.009901,	 1.000000,	 1.000000,	 0.000000,	 13.387172,	 5.154869,	 2.686413,	 0.372244 
0.258333,	 0.009901,	 1.000000,	 1.000000,	 0.000000,	 13.387172,	 5.154869,	 2.686413,	 0.372244 
0.275000,	 0.009901,	 1.000000,	 1.000000,	 0.000000,	 13.387172,	 5.154869,	 2.686413,	 0.372244 
0.291667,	 0.009901,	 1.000000,	 1.000000,	 0.000000,	 13.387172,	 5.154869,	 2.686413,	 0.372244 
0.308333,	 0.009901,	 1.000000,	 1.000000,	 0.000000,	 13.387172,	 5.154869,	 2.686413,	 0.372244 
0.325000,	 0.009901,	 1.000000,	 1.000000,	 0.000000,	 13.387172,	 5.154869,	 2.686413,	 0.372244 
0.341666,	 0.009901,	 1.000000,	 1.000000,	 0.000000,	 13.387172,	 5.154869,	 2.686413,	 0.372244 
0.358333,	 0.009901,	 1.000000,	 1.000000,	 0.000000,	 13.387172,	 5.154869,	 2.686413,	 0.372244 
0.375000,	 0.009901,	 1.000000,	 1.000000,	 0.000000,	 13.387172,	 5.154869,	 2.686413,	 0.372244 
0.391667,	 0.009901,	 1.000000,	 1.000000,	 0.000000,	 13.387172,	 5.154869,	 2.686413,	 0.372244 
0.408334,	 0.009901,	 1.000000,	 1.000000,	 0.000000,	 13.387172,	 5.154869,	 2.686413,	 0.372244 
0.425000,	 0.009901,	 1.000000,	 1.000000,	 0.000000,	 13.387172,	 5.154869,	 2.686413,	 0.372244 
0.441667,	 0.009901,	 1.000000,	 1.000000,	 0.000000,	 13.387172,	 5.154869,	 2.686413,	 0.372244 
0.458334,	 0.009901,	 1.000000,	 1.000000,	 0.000000,	 13.387172,	 5.154869,	 2.686413,	 0.372244 
0.475000,	 0.009901,	 1.000000,	 1.000000,	 0.000000,	 13.387172,	 5.154869,	 2.686413,	 0.372244 
0.491667,	 0.009901,	 1.000000,	 1.000000,	 0.000000,	 13.387172,	 5.154869,	 2.686413,	 0.372244 
0.508333,	 0.009901,	 1.000000,	 1.000000,	 0.000000,	 13.387172,	 5.154869,	 2.686413,	 0.372244 
0.525000,	 0.009901,	 1.000000,	 1.000000,	 0.000000,	 13.387172,	 5.154869,	 2.686413,	 0.372244 
0.541667,	 0.009901,	 1.000000,	 1.000000,	 0.000000,	 13.387172,	 5.154869,	 2.686413,	 0.372244 
0.558334,	 0.009901,	 1.000000,	 1.000000,	 0.000000,	 13.387172,	 5.154869,	 2.686413,	 0.372244 
0.575000,	 0.009901,	 1.000000,	 1.000000,	 0.000000,	 13.387172,	 5.154869,	 2.686413,	 0.372244 
0.591666,	 0.009901,	 1.000000,	 1.000000,	 0.000000,	 13.387172,	 5.154869,	 2.686413,	 0.372244 
0.608333,	 0.009901,	 1.000000,	 1.000000,	 0.000000,	 13.387172,	 5.154869,	 2.686413,	 0.372244 
0.625000,	 0.009901,	 1.000000,	 1.000000,	 0.000000,	 13.387172,	 5.154869,	 2.686413,	 0.372244 
0.641667,	 0.009901,	 1.000000,	 1.000000,	 0.000000,	 13.387172,	 5.154869,	 2.686413,	 0.372244 
0.658334,	 0.009901,	 1.000000,	 1.000000,	 0.000000,	 13.387172,	 5.154869,	 2.686413,	 0.372244 
0.675000,	 0.009901,	 1.000000,	 1.000000,	 0.000000,	 13.387172,	 5.154869,	 2.686413,	 0.372244 
0.691666,	 0.009901,	 1.000000,	 1.000000,	 0.000000,	 13.387172,	 5.154869,	 2.686413,	 0.372244 
0.708333,	 0.009901,	 1.000000,	 1.000000,	 0.000000,	 13.387172,	 5.154869,	 2.686413,	 0.372244 
0.725000,	 0.009901,	 1.000000,	 1.000000,	 0.000000,	 13.387172,	 5.154869,	 2.686413,	 0.372244 
0.741667,	 0.009901,	 1.000000,	 1.000000,	 0.000000,	 13.387172,	 5.154869,	 2.686413,	 0.372244 
0.758333,	 0.009901,	 1.000000,	 1.000000,	 0.000000,	 13.387172,	 5.154869,	 2.686413,	 0.372244 
0.775000,	 0.009901,	 1.000000,	 1.000000,	 0.000000,	 13.387172,	 5.154869,	 2.686413,	 0.372244 
0.791667,	 0.009901,	 1.000000,	 1.000000,	 0.000000,	 13.387172,	 5.154869,	 2.686413,	 0.372244 
0.808334,	 0.009901,	 1.000000,	 1.000000,	 0.000000,	 13.387172,	 5.154869,	 2.686413,	 0.372244 
0.825000,	 0.009901,	 1.000000,	 1.000000,	 0.000000,	 13.387172,	 5.154869,	 2.686413,	 0.372244 
0.841666,	 0.009901,	 1.000000,	 1.000000,	 0.000000,	 13.387172,	 5.154869,	 2.686413,	 0.372244 
0.858333,	 0.009901,	 1.000000,	 1.000000,	 0.000000,	 13.387172,	 5.154869,	 2.686413,	 0.372244 
0.875000,	 0.009901,	 1.000000,	 1.000000,	 0.000000,	 13.387172,	 5.154869,	 2.686413,	 0.372244 
0.891667,	 0.009901,	 1.000000,	 1.000000,	 0.000000,	 13.387172,	 5.154869,	 2.686413,	 0.372244 
0.908334,	 0.009901,	 1.000000,	 1.000000,	 0.000000,	 13.387172,	 5.154869,	 2.686413,	 0.372244 
0.925000,	 0.009901,	 1.000000,	 1.000000,	 0.000000,	 13.387172,	 5.154869,	 2.686413,	 0.372244 
0.941666,	 0.009901,	 1.000000,	 1.000000,	 0.000000,	 13.387172,	 5.154869,	 2.686413,	 0.372244 
0.958333,	 0.009901,	 1.000000,	 1.000000,	 0.000000,	 13.387172,	 5.154869,	 2.686413,	 0.372244 
0.975000,	 0.009901,	 1.000000,	 1.000000,	 0.000000,	 13.387172,	 5.154869,	 2.686413,	 0.372244 
0.991667,	 0.009901,	 1.000000,	 1.000000,	 0.000000,	 13.387172,	 5.154869,	 2.686413,	 0.372244 
1.008334,	 0.016535,	 1.000000,	 1.000000,	 0.000000,	 13.387172,	 5.154869,	 2.686413,	 0.372244 
1.025000,	 0.029802,	 1.000000,	 1.000000,	 0.000000,	 13.387172,	 5.154869,	 2.686413,	 0.372244 
1.041667,	 0.043070,	 1.000000,	 1.000000,	 0.000000,	 13.387172,	 5.154869,	 2.686413,	 0.372244 
1.058334,	 0.056336,	 1.000000,	 1.000000,	 0.000000,	 13.387172,	 5.154869,	 2.686413,	 0.372244 
1.075000,	 0.069604,	 1.000000,	 1.000000,	 0.000000,	 13.387172,	 5.154869,	 2.686413,	 0.372244 
1.091667,	 0.082872,	 1.000000,	 1.000000,	 0.000000,	 13.387172,	 5.154869,	 2.686413,	 0.372244 
1.108334,	 0.096139,	 1.000000,	 1.000000,	 0.000000,	 13.387172,	 5.154869,	 2.686413,	 0.372244 
1.125000,	 0.109406,	 1.000000,	 1.000000,	 0.000000,	 13.387172,	 5.154869,	 2.686413,	 0.372244 
1.141666,	 0.122673,	 1.000000,	 1.000000,	 0.000000,	 13.387172,	 5.154869,	 2.686413,	 0.372244 
1.158333,	 0.135940,	 1.000000,	 1.000000,	 0.000000,	 13.387172,	 5.154869,	 2.686413,	 0.372244 
1.175000,	 0.149208,	 1.000000,	 1.000000,	 0.000000,	 13.387172,	 5.154869,	 2.686413,	 0.372244 
1.191667,	 0.162475,	 1.000000,	 1.000000,	 0.000000,	 13.387172,	 5.154869,	 2.686413,	 0.372244 
1.208333,	 0.175743,	 1.000000,	 1.000000,	 0.000000,	 13.387172,	 5.154869,	 2.686413,	 0.372244 
1.225000,	 0.189010,	 1.000000,	 1.000000,	 0.000000,	 13.387172,	 5.154869,	 2.686413,	 0.372244 
1.241667,	 0.202277,	 1.000000,	 1.000000,	 0.000000,	 13.387172,	 5.154869,	 2.686413,	 0.372244 
1.258334,	 0.215545,	 1.000000,	 1.000000,	 0.000000,	 13.387172,	 5.154869,	 2.686413,	 0.372244 
1.275000,	 0.228812,	 1.000000,	 1.000000,	 0.000000,	 13.387172,	 5.154869,	 2.686413,	 0.372244 
1.291667,	 0.242079,	 1.000000,	 1.000000,	 0.000000,	 13.387172,	 5.154869,	 2.686413,	 0.372244 
1.308334,	 0.255346,	 1.000000,	 1.000000,	 0.000000,	 13.387172,	 5.154869,	 2.686413,	 0.372244 
1.325000,	 0.268614,	 1.000000,	 1.000000,	 0.000000,	 13.387172,	 5.154869,	 2.686413,	 0.372244 
1.341667,	 0.281881,	 1.000000,	 1.000000,	 0.000000,	 13.387172,	 5.154869,	 2.686413,	 0.372244 
1.358334,	 0.295149,	 1.000000,	 1.000000,	 0.000000,	 13.387172,	 5.154869,	 2.686413,	 0.372244 
1.375000,	 0.308416,	 1.000000,	 1.000000,	 0.000000,	 13.387172,	 5.154869,	 2.686413,	 0.372244 
1.391666,	 0.321683,	 1.000000,	 1.000000,	 0.000000,	 13.387172,	 5.154869,	 2.686413,	 0.372244 
1.408333,	 0.334950,	 1.000000,	 1.000000,	 0.000000,	 13.387172,	 5.154869,	 2.686413,	 0.372244 
1.425000,	 0.348218,	 1.000000,	 1.000000,	 0.000000,	 13.387172,	 5.154869,	 2.686413,	 0.372244 
1.441667,	 0.361485,	 1.000000,	 1.000000,	 0.000000,	 13.387172,	 5.154869,	 2.686413,	 0.372244 
1.458333,	 0.374752,	 1.000000,	 1.000000,	 0.000000,	 13.387172,	 5.154869,	 2.686413,	 0.372244 
1.475000,	 0.388020,	 1.000000,	 1.000000,	 0.000000,	 13.387172,	 5.154869,	 2.686413,	 0.372244 
1.491667,	 0.401287,	 1.000000,	 1.000000,	 0.000000,	 13.387172,	 5.154869,	 2.686413,	 0.372244 
1.508334,	 0.414554,	 1.000000,	 1.000000,	 0.000000,	 13.387172,	 5.154869,	 2.686413,	 0.372244 
1.525000,	 0.427822,	 1.000000,	 1.000000,	 0.000000,	 13.387172,	 5.154869,	 2.686413,	 0.372244 
1.541667,	 0.441089,	 1.000000,	 1.000000,	 0.000000,	 13.387172,	 5.154869,	 2.686413,	 0.372244 
1.558334,	 0.454357,	 1.000000,	 1.000000,	 0.000000,	 13.387172,	 5.154869,	 2.686413,	 0.372244 
1.575000,	 0.467624,	 1.000000,	 1.000000,	 0.000000,	 13.387172,	 5.154869,	 2.686413,	 0.372244 
1.591667,	 0.480891,	 1.000000,	 1.000000,	 0.000000,	 13.387172,	 5.154869,	 2.686413,	 0.372244 
1.608334,	 0.494159,	 1.000000,	 1.000000,	 0.000000,	 13.387172,	 5.154869,	 2.686413,	 0.372244 
1.625000,	 0.507426,	 1.000000,	 1.000000,	 0.000000,	 13.387172,	 5.154869,	 2.686413,	 0.372244 
1.641666,	 0.520693,	 1.000000,	 1.000000,	 0.000000,	 13.387172,	 5.154869,	 2.686413,	 0.372244 
1.658333,	 0.533960,	 1.000000,	 1.000000,	 0.000000,	 13.387172,	 5.154869,	 2.686413,	 0.372244 
1.675000,	 0.547228,	 1.000000,	 1.000000,	 0.000000,	 13.387172,	 5.154869,	 2.686413,	 0.372244 
1.691667,	 0.560495,	 1.000000,	 1.000000,	 0.000000,	 13.387172,	 5.154869,	 2.686413,	 0.372244 
1.708333,	 0.573762,	 1.000000,	 1.000000,	 0.000000,	 13.387172,	 5.154869,	 2.686413,	 0.372244 
1.725000,	 0.587030,	 1.000000,	 1.000000,	 0.000000,	 13.387172,	 5.154869,	 2.686413,	 0.372244 
1.741667,	 0.600297,	 1.000000,	 1.000000,	 0.000000,	 13.387172,	 5.154869,	 2.686413,	 0.372244 
1.758334,	 0.613564,	 1.000000,	 1.000000,	 0.000000,	 13.387172,	 5.154869,	 2.686413,	 0.372244 
1.775000,	 0.626832,	 1.000000,	 1.000000,	 0.000000,	 13.387172,	 5.154869,	 2.686413,	 0.372244 
1.791667,	 0.640099,	 1.000000,	 1.000000,	 0.000000,	 13.387172,	 5.154869,	 2.686413,	 0.372244 
1.808334,	 0.653366,	 1.000000,	 1.000000,	 0.000000,	 13.387172,	 5.154869,	 2.686413,	 0.372244 
1.825000,	 0.666634,	 1.000000,	 1.000000,	 0.000000,	 13.387172,	 5.154869,	 2.686413,	 0.372244 
1.841667,	 0.679901,	 1.000000,	 1.000000,	 0.000000,	 13.387172,	 5.154869,	 2.686413,	 0.372244 
1.858334,	 0.693168,	 1.000000,	 1.000000,	 0.000000,	 13.387172,	 5.154869,	 2.686413,	 0.372244 
1.875000,	 0.706436,	 1.000000,	 1.000000,	 0.000000,	 13.387172,	 5.154869,	 2.686413,	 0.372244 
1.891666,	 0.719703,	 1.000000,	 1.000000,	 0.000000,	 13.387172,	 5.154869,	 2.686413,	 0.372244 
1.908333,	 0.732970,	 1.000000,	 1.000000,	 0.000000,	 13.387172,	 5.154869,	 2.686413,	 0.372244 
1.925000,	 0.746238,	 1.000000,	 1.000000,	 0.000000,	 13.387172,	 5.154869,	 2.686413,	 0.372244 
1.941667,	 0.759505,	 1.000000,	 1.000000,	 0.000000,	 13.387172,	 5.154869,	 2.686413,	 0.372244 
1.958333,	 0.772772,	 1.000000,	 1.000000,	 0.000000,	 13.387172,	 5.154869,	 2.686413,	 0.372244 
1.975000,	 0.786040,	 1.000000,	 1.000000,	 0.000000,	 13.387172,	 5.154869,	 2.686413,	 0.372244 
1.991667,	 0.799307,	 1.000000,	 1.000000,	 0.000000,	 13.387172,	 5.154869,	 2.686413,	 0.372244 
2.008334,	 0.804835,	 1.000000,	 1.000000,	 0.000000,	 13.387172,	 5.154869,	 2.686413,	 0.372244 
2.025000,	 0.802624,	 1.000000,	 1.000000,	 0.000000,	 13.387172,	 5.154869,	 2.686413,	 0.372244 
2.041666,	 0.800413,	 1.000000,	 1.000000,	 0.000000,	 13.387172,	 5.154869,	 2.686413,	 0.372244 
2.058333,	 0.798201,	 1.000000,	 1.000000,	 0.000000,	 13.387172,	 5.154869,	 2.686413,	 0.372244 
2.075000,	 0.795990,	 1.000000,	 1.000000,	 0.000000,	 13.387172,	 5.154869,	 2.686413,	 0.372244 
2.091667,	 0.793779,	 1.000000,	 1.000000,	 0.000000,	 13.387172,	 5.154869,	 2.686413,	 0.372244 
2.108334,	 0.791568,	 1.000000,	 1.000000,	 0.000000,	 13.387172,	 5.154869,	 2.686413,	 0.372244 
2.125000,	 0.789356,	 1.000000,	 1.000000,	 0.000000,	 13.387172,	 5.154869,	 2.686413,	 0.372244 
2.141666,	 0.787145,	 1.000000,	 1.000000,	 0.000000,	 13.387172,	 5.154869,	 2.686413,	 0.372244 
2.158333,	 0.784934,	 1.000000,	 1.000000,	 0.000000,	 13.387172,	 5.154869,	 2.686413,	 0.372244 
2.175000,	 0.782723,	 1.000000,	 1.000000,	 0.000000,	 13.387172,	 5.154869,	 2.686413,	 0.372244 
2.191667,	 0.780512,	 1.000000,	 1.000000,	 0.000000,	 13.387172,	 5.154869,	 2.686413,	 0.372244 
2.208334,	 0.778300,	 1.000000,	 1.000000,	 0.000000,	 13.387172,	 5.154869,	 2.686413,	 0.372244 
2.225000,	 0.776089,	 1.000000,	 1.000000,	 0.000000,	 13.387172,	 5.154869,	 2.686413,	 0.372244 
2.241667,	 0.773878,	 1.000000,	 1.000000,	 0.000000,	 13.387172,	 5.154869,	 2.686413,	 0.372244 
2.258334,	 0.771667,	 1.000000,	 1.000000,	 0.000000,	 13.387172,	 5.154869,	 2.686413,	 0.372244 
2.275000,	 0.769455,	 1.000000,	 1.000000,	 0.000000,	 13.387172,	 5.154869,	 2.686413,	 0.372244 
2.291666,	 0.767244,	 1.000000,	 1.000000,	 0.000000,	 13.387172,	 5.154869,	 2.686413,	 0.372244 
2.308333,	 0.765033,	 1.000000,	 1.000000,	 0.000000,	 13.387172,	 5.154869,	 2.686413,	 0.372244 
2.325000,	 0.762822,	 1.000000,	 1.000000,	 0.000000,	 13.387172,	 5.154869,	 2.686413,	 0.372244 
2.341667,	 0.760611,	 1.000000,	 1.000000,	 0.000000,	 13.387172,	 5.154869,	 2.686413,	 0.372244 
2.358334,	 0.758399,	 1.000000,	 1.000000,	 0.000000,	 13.387172,	 5.154869,	 2.686413,	 0.372244 
2.375000,	 0.756188,	 1.000000,	 1.000000,	 0.000000,	 13.387172,	 5.154869,	 2.686413,	 0.372244 
2.391666,	 0.753977,	 1.000000,	 1.000000,	 0.000000,	 13.387172,	 5.154869,	 2.686413,	 0.372244 
2.408333,	 0.751766,	 1.000000,	 1.000000,	 0.000000,	 13.387172,	 5.154869,	 2.686413,	 0.372244 
2.425000,	 0.749554,	 1.000000,	 1.000000,	 0.000000,	 13.387172,	 5.154869,	 2.686413,	 0.372244 
2.441667,	 0.747343,	 1.000000,	 1.000000,	 0.000000,	 13.387172,	 5.154869,	 2.686413,	 0.372244 
2.458334,	 0.745132,	 1.000000,	 1.000000,	 0.000000,	 13.387172,	 5.154869,	 2.686413,	 0.372244 
2.475000,	 0.742921,	 1.000000,	 1.000000,	 0.000000,	 13.387172,	 5.154869,	 2.686413,	 0.372244 
2.491667,	 0.740710,	 1.000000,	 1.000000,	 0.000000,	 13.387172,	 5.154869,	 2.686413,	 0.372244 
2.508334,	 0.738498,	 1.000000,	 1.000000,	 0.000000,	 13.387172,	 5.154869,	 2.686413,	 0.372244 
2.525000,	 0.736287,	 1.000000,	 1.000000,	 0.000000,	 13.387172,	 5.154869,	 2.686413,	 0.372244 
2.541666,	 0.734076,	 1.000000,	 1.000000,	 0.000000,	 13.387172,	 5.154869,	 2.686413,	 0.372244 
2.558333,	 0.731865,	 1.000000,	 1.000000,	 0.000000,	 13.387172,	 5.154869,	 2.686413,	 0.372244 
2.575000,	 0.729653,	 1.000000,	 1.000000,	 0.000000,	 13.387172,	 5.154869,	 2.686413,	 0.372244 
2.591667,	 0.727442,	 1.000000,	 1.000000,	 0.000000,	 13.387172,	 5.154869,	 2.686413,	 0.372244 
2.608334,	 0.725231,	 1.000000,	 1.000000,	 0.000000,	 13.387172,	 5.154869,	 2.686413,	 0.372244 
2.625000,	 0.723020,	 1.000000,	 1.000000,	 0.000000,	 13.387172,	 5.154869,	 2.686413,	 0.372244 
2.641666,	 0.720809,	 1.000000,	 1.000000,	 0.000000,	 13.387172,	 5.154869,	 2.686413,	 0.372244 
2.658333,	 0.718597,	 1.000000,	 1.000000,	 0.000000,	 13.387172,	 5.154869,	 2.686413,	 0.372244 
2.675000,	 0.716386,	 1.000000,	 1.000000,	 0.000000,	 13.387172,	 5.154869,	 2.686413,	 0.372244 
2.691667,	 0.714175,	 1.000000,	 1.000000,	 0.000000,	 13.387172,	 5.154869,	 2.686413,	 0.372244 
2.708334,	 0.711964,	 1.000000,	 1.000000,	 0.000000,	 13.387172,	 5.154869,	 2.686413,	 0.372244 
2.725000,	 0.709753,	 1.000000,	 1.000000,	 0.000000,	 13.387172,	 5.154869,	 2.686413,	 0.372244 
2.741667,	 0.707541,	 1.000000,	 1.000000,	 0.000000,	 13.387172,	 5.154869,	 2.686413,	 0.372244 
2.758334,	 0.705330,	 1.000000,	 1.000000,	 0.000000,	 13.387172,	 5.154869,	 2.686413,	 0.372244 
2.775000,	 0.703119,	 1.000000,	 1.000000,	 0.000000,	 13.387172,	 5.154869,	 2.686413,	 0.372244 
2.791666,	 0.700908,	 1.000000,	 1.000000,	 0.000000,	 13.387172,	 5.154869,	 2.686413,	 0.372244 
2.808333,	 0.698696,	 1.000000,	 1.000000,	 0.000000,	 13.387172,	 5.154869,	 2.686413,	 0.372244 
2.825000,	 0.696485,	 1.000000,	 1.000000,	 0.000000,	 13.387172,	 5.154869,	 2.686413,	 0.372244 
2.841667,	 0.694274,	 1.000000,	 1.000000,	 0.000000,	 13.387172,	 5.154869,	 2.686413,	 0.372244 
2.858334,	 0.692063,	 1.000000,	 1.000000,	 0.000000,	 13.387172,	 5.154869,	 2.686413,	 0.372244 
2.875000,	 0.689852,	 1.000000,	 1.000000,	 0.000000,	 13.387172,	 5.154869,	 2.686413,	 0.372244 
2.891666,	 0.687640,	 1.000000,	 1.000000,	 0.000000,	 13.387172,	 5.154869,	 2.686413,	 0.372244 
2.908333,	 0.685429,	 1.000000,	 1.000000,	 0.000000,	 13.387172,	 5.154869,	 2.686413,	 0.372244 
2.925000,	 0.683218,	 1.000000,	 1.000000,	 0.000000,	 13.387172,	 5.154869,	 2.686413,	 0.372244 
2.941667,	 0.681007,	 1.000000,	 1.000000,	 0.000000,	 13.387172,	 5.154869,	 2.686413,	 0.372244 
2.958334,	 0.678795,	 1.000000,	 1.000000,	 0.000000,	 13.387172,	 5.154869,	 2.686413,	 0.372244 
2.975000,	 0.676584,	 1.000000,	 1.000000,	 0.000000,	 13.387172,	 5.154869,	 2.686413,	 0.372244 
2.991667,	 0.674373,	 1.000000,	 1.000000,	 0.000000,	 13.387172,	 5.154869,	 2.686413,	 0.372244 
3.008334,	 0.672162,	 1.000000,	 1.000000,	 0.000000,	 13.387172,	 5.154869,	 2.686413,	 0.372244 
3.025000,	 0.669951,	 1.000000,	 1.000000,	 0.000000,	 13.387172,	 5.154869,	 2.686413,	 0.372244 
3.041666,	 0.667739,	 1.000000,	 1.000000,	 0.000000,	 13.387172,	 5.154869,	 2.686413,	 0.372244 
3.058333,	 0.665528,	 1.000000,	 1.000000,	 0.000000,	 13.387172,	 5.154869,	 2.686413,	 0.372244 
3.075000,	 0.663317,	 1.000000,	 1.000000,	 0.000000,	 13.387172,	 5.154869,	 2.686413,	 0.372244 
3.091667,	 0.661106,	 1.000000,	 1.000000,	 0.000000,	 13.387172,	 5.154869,	 2.686413,	 0.372244 
3.108334,	 0.658894,	 1.000000,	 1.000000,	 0.000000,	 13.387172,	 5.154869,	 2.686413,	 0.372244 
3.125000,	 0.656683,	 1.000000,	 1.000000,	 0.000000,	 13.387172,	 5.154869,	 2.686413,	 0.372244 
3.141666,	 0.654472,	 1.000000,	 1.000000,	 0.000000,	 13.387172,	 5.154869,	 2.686413,	 0.372244 
3.158333,	 0.652261,	 1.000000,	 1.000000,	 0.000000,	 13.387172,	 5.154869,	 2.686413,	 0.372244 
3.175000,	 0.650049,	 1.000000,	 1.000000,	 0.000000,	 13.387172,	 5.154869,	 2.686413,	 0.372244 
3.191667,	 0.647838,	 1.000000,	 1.000000,	 0.000000,	 13.387172,	 5.154869,	 2.686413,	 0.372244 
3.208334,	 0.645627,	 1.000000,	 1.000000,	 0.000000,	 13.387172,	 5.154869,	 2.686413,	 0.372244 
3.225000,	 0.643416,	 1.000000,	 1.000000,	 0.000000,	 13.387172,	 5.154869,	 2.686413,	 0.372244 
3.241667,	 0.641205,	 1.000000,	 1.000000,	 0.000000,	 13.387172,	 5.154869,	 2.686413,	 0.372244 
3.258334,	 0.638993,	 1.000000,	 1.000000,	 0.000000,	 13.387172,	 5.154869,	 2.686413,	 0.372244 
3.275000,	 0.636782,	 1.000000,	 1.000000,	 0.000000,	 13.387172,	 5.154869,	 2.686413,	 0.372244 
3.291666,	 0.634571,	 1.000000,	 1.000000,	 0.000000,	 13.387172,	 5.154869,	 2.686413,	 0.372244 
3.308333,	 0.632360,	 1.000000,	 1.000000,	 0.000000,	 13.387172,	 5.154869,	 2.686413,	 0.372244 
3.325000,	 0.630149,	 1.000000,	 1.000000,	 0.000000,	 13.387172,	 5.154869,	 2.686413,	 0.372244 
3.341667,	 0.627937,	 1.000000,	 1.000000,	 0.000000,	 13.387172,	 5.154869,	 2.686413,	 0.372244 
3.358334,	 0.625726,	 1.000000,	 1.000000,	 0.000000,	 13.387172,	 5.154869,	 2.686413,	 0.372244 
3.375000,	 0.623515,	 1.000000,	 1.000000,	 0.000000,	 13.387172,	 5.154869,	 2.686413,	 0.372244 
3.391666,	 0.621304,	 1.000000,	 1.000000,	 0.000000,	 13.387172,	 5.154869,	 2.686413,	 0.372244 
3.408333,	 0.619092,	 1.000000,	 1.000000,	 0.000000,	 13.387172,	 5.154869,	 2.686413,	 0.372244 
3.425000,	 0.616881,	 1.000000,	 1.000000,	 0.000000,	 13.387172,	 5.154869,	 2.686413,	 0.372244 
3.441667,	 0.614670,	 1.000000,	 1.000000,	 0.000000,	 13.387172,	 5.154869,	 2.686413,	 0.372244 
3.458334,	 0.612459,	 1.000000,	 1.000000,	 0.000000,	 13.387172,	 5.154869,	 2.686413,	 0.372244 
3.475000,	 0.610248,	 1.000000,	 1.000000,	 0.000000,	 13.387172,	 5.154869,	 2.686413,	 0.372244 
3.491667,	 0.608036,	 1.000000,	 1.000000,	 0.000000,	 13.387172,	 5.154869,	 2.686413,	 0.372244 
3.508334,	 0.605825,	 1.000000,	 1.000000,	 0.000000,	 13.387172,	 5.154869,	 2.686413,	 0.372244 
3.525000,	 0.603614,	 1.000000,	 1.000000,	 0.000000,	 13.387172,	 5.154869,	 2.686413,	 0.372244 
3.541666,	 0.601403,	 1.000000,	 1.000000,	 0.000000,	 13.387172,	 5.154869,	 2.686413,	 0.372244 
3.558333,	 0.599191,	 1.000000,	 1.000000,	 0.000000,	 13.387172,	 5.154869,	 2.686413,	 0.372244 
3.575000,	 0.596980,	 1.000000,	 1.000000,	 0.000000,	 13.387172,	 5.154869,	 2.686413,	 0.372244 
3.591667,	 0.594769,	 1.000000,	 1.000000,	 0.000000,	 13.387172,	 5.154869,	 2.686413,	 0.372244 
3.608334,	 0.592558,	 1.000000,	 1.000000,	 0.000000,	 13.387172,	 5.154869,	 2.686413,	 0.372244 
3.625000,	 0.590347,	 1.000000,	 1.000000,	 0.000000,	 13.387172,	 5.154869,	 2.686413,	 0.372244 
3.641666,	 0.588135,	 1.000000,	 1.000000,	 0.000000,	 13.387172,	 5.154869,	 2.686413,	 0.372244 
3.658333,	 0.585924,	 1.000000,	 1.000000,	 0.000000,	 13.387172,	 5.154869,	 2.686413,	 0.372244 
3.675000,	 0.583713,	 1.000000,	 1.000000,	 0.000000,	 13.387172,	 5.154869,	 2.686413,	 0.372244 
3.691667,	 0.581502,	 1.000000,	 1.000000,	 0.000000,	 13.387172,	 5.154869,	 2.686413,	 0.372244 
3.708334,	 0.579290,	 1.000000,	 1.000000,	 0.000000,	 13.387172,	 5.154869,	 2.686413,	 0.372244 
3.725000,	 0.577079,	 1.000000,	 1.000000,	 0.000000,	 13.387172,	 5.154869,	 2.686413,	 0.372244 
3.741667,	 0.574868,	 1.000000,	 1.000000,	 0.000000,	 13.387172,	 5.154869,	 2.686413,	 0.372244 
3.758334,	 0.572657,	 1.000000,	 1.000000,	 0.000000,	 13.387172,	 5.154869,	 2.686413,	 0.372244 
3.775000,	 0.570445,	 1.000000,	 1.000000,	 0.000000,	 13.387172,	 5.154869,	 2.686413,	 0.372244 
3.791666,	 0.568234,	 1.000000,	 1.000000,	 0.000000,	 13.387172,	 5.154869,	 2.686413,	 0.372244 
3.808333,	 0.566023,	 1.000000,	 1.000000,	 0.000000,	 13.387172,	 5.154869,	 2.686413,	 0.372244 
3.825000,	 0.563812,	 1.000000,	 1.000000,	 0.000000,	 13.387172,	 5.154869,	 2.686413,	 0.372244 
3.841667,	 0.561601,	 1.000000,	 1.000000,	 0.000000,	 13.387172,	 5.154869,	 2.686413,	 0.372244 
3.858334,	 0.559389,	 1.000000,	 1.000000,	 0.000000,	 13.387172,	 5.154869,	 2.686413,	 0.372244 
3.875000,	 0.557178,	 1.000000,	 1.000000,	 0.000000,	 13.387172,	 5.154869,	 2.686413,	 0.372244 
3.891666,	 0.554967,	 1.000000,	 1.000000,	 0.000000,	 13.387172,	 5.154869,	 2.686413,	 0.372244 
3.908333,	 0.552756,	 1.000000,	 1.000000,	 0.000000,	 13.387172,	 5.154869,	 2.686413,	 0.372244 
3.925000,	 0.550544,	 1.000000,	 1.000000,	 0.000000,	 13.387172,	 5.154869,	 2.686413,	 0.372244 
3.941667,	 0.548333,	 1.000000,	 1.000000,	 0.000000,	 13.387172,	 5.154869,	 2.686413,	 0.372244 
3.958334,	 0.546122,	 1.000000,	 1.000000,	 0.000000,	 13.387172,	 5.154869,	 2.686413,	 0.372244 
3.975000,	 0.543911,	 1.000000,	 1.000000,	 0.000000,	 13.387172,	 5.154869,	 2.686413,	 0.372244 
3.991667,	 0.541700,	 1.000000,	 1.000000,	 0.000000,	 13.387172,	 5.154869,	 2.686413,	 0.372244 
4.008334,	 0.539489,	 1.000000,	 1.000000,	 0.000000,	 13.387172,	 5.154869,	 2.686413,	 0.372244 
4.025000,	 0.537277,	 1.000000,	 1.000000,	 0.000000,	 13.387172,	 5.154869,	 2.686413,	 0.372244 
4.041666,	 0.535066,	 1.000000,	 1.000000,	 0.000000,	 13.387172,	 5.154869,	 2.686413,	 0.372244 
4.058333,	 0.532855,	 1.000000,	 1.000000,	 0.000000,	 13.387172,	 5.154869,	 2.686413,	 0.372244 
4.075000,	 0.530644,	 1.000000,	 1.000000,	 0.000000,	 13.387172,	 5.154869,	 2.686413,	 0.372244 
4.091666,	 0.528432,	 1.000000,	 1.000000,	 0.000000,	 13.387172,	 5.154869,	 2.686413,	 0.372244 
4.108333,	 0.526221,	 1.000000,	 1.000000,	 0.000000,	 13.387172,	 5.154869,	 2.686413,	 0.372244 
4.125000,	 0.524010,	 1.000000,	 1.000000,	 0.000000,	 13.387172,	 5.154869,	 2.686413,	 0.372244 
4.141667,	 0.521799,	 1.000000,	 1.000000,	 0.000000,	 13.387172,	 5.154869,	 2.686413,	 0.372244 
4.158334,	 0.519587,	 1.000000,	 1.000000,	 0.000000,	 13.387172,	 5.154869,	 2.686413,	 0.372244 
4.175000,	 0.517376,	 1.000000,	 1.000000,	 0.000000,	 13.387172,	 5.154869,	 2.686413,	 0.372244 
4.191667,	 0.515165,	 1.000000,	 1.000000,	 0.000000,	 13.387172,	 5.154869,	 2.686413,	 0.372244 
4.208334,	 0.512954,	 1.000000,	 1.000000,	 0.000000,	 13.387172,	 5.154869,	 2.686413,	 0.372244 
4.225000,	 0.510742,	 1.000000,	 1.000000,	 0.000000,	 13.387172,	 5.154869,	 2.686413,	 0.372244 
4.241667,	 0.508531,	 1.000000,	 1.000000,	 0.000000,	 13.387172,	 5.154869,	 2.686413,	 0.372244 
4.258334,	 0.506320,	 1.000000,	 1.000000,	 0.000000,	 13.387172,	 5.154869,	 2.686413,	 0.372244 
4.275000,	 0.504109,	 1.000000,	 1.000000,	 0.000000,	 13.387172,	 5.154869,	 2.686413,	 0.372244 
4.291666,	 0.501898,	 1.000000,	 1.000000,	 0.000000,	 13.387172,	 5.154869,	 2.686413,	 0.372244 
4.308333,	 0.499687,	 1.000000,	 1.000000,	 0.000000,	 13.387172,	 5.154869,	 2.686413,	 0.372244 
4.325000,	 0.497475,	 1.000000,	 1.000000,	 0.000000,	 13.387172,	 5.154869,	 2.686413,	 0.372244 
4.341666,	 0.495264,	 1.000000,	 1.000000,	 0.000000,	 13.387172,	 5.154869,	 2.686413,	 0.372244 
4.358333,	 0.493053,	 1.000000,	 1.000000,	 0.000000,	 13.387172,	 5.154869,	 2.686413,	 0.372244 
4.375000,	 0.490841,	 1.000000,	 1.000000,	 0.000000,	 13.387172,	 5.154869,	 2.686413,	 0.372244 
4.391667,	 0.488630,	 1.000000,	 1.000000,	 0.000000,	 13.387172,	 5.154869,	 2.686413,	 0.372244 
4.408334,	 0.486419,	 1.000000,	 1.000000,	 0.000000,	 13.387172,	 5.154869,	 2.686413,	 0.372244 
4.425000,	 0.484208,	 1.000000,	 1.000000,	 0.000000,	 13.387172,	 5.154869,	 2.686413,	 0.372244 
4.441667,	 0.481997,	 1.000000,	 1.000000,	 0.000000,	 13.387172,	 5.154869,	 2.686413,	 0.372244 
4.458334,	 0.479785,	 1.000000,	 1.000000,	 0.000000,	 13.387172,	 5.154869,	 2.686413,	 0.372244 
4.475000,	 0.477574,	 1.000000,	 1.000000,	 0.000000,	 13.387172,	 5.154869,	 2.686413,	 0.372244 
4.491667,	 0.475363,	 1.000000,	 1.000000,	 0.000000,	 13.387172,	 5.154869,	 2.686413,	 0.372244 
4.508334,	 0.473152,	 1.000000,	 1.000000,	 0.000000,	 13.387172,	 5.154869,	 2.686413,	 0.372244 
4.525000,	 0.470940,	 1.000000,	 1.000000,	 0.000000,	 13.387172,	 5.154869,	 2.686413,	 0.372244 
4.541666,	 0.468730,	 1.000000,	 1.000000,	 0.000000,	 13.387172,	 5.154869,	 2.686413,	 0.372244 
4.558333,	 0.466518,	 1.000000,	 1.000000,	 0.000000,	 13.387172,	 5.154869,	 2.686413,	 0.372244 
4.575000,	 0.464307,	 1.000000,	 1.000000,	 0.000000,	 13.387172,	 5.154869,	 2.686413,	 0.372244 
4.591666,	 0.462096,	 1.000000,	 1.000000,	 0.000000,	 13.387172,	 5.154869,	 2.686413,	 0.372244 
4.608333,	 0.459884,	 1.000000,	 1.000000,	 0.000000,	 13.387172,	 5.154869,	 2.686413,	 0.372244 
4.625000,	 0.457673,	 1.000000,	 1.000000,	 0.000000,	 13.387172,	 5.154869,	 2.686413,	 0.372244 
4.641667,	 0.455462,	 1.000000,	 1.000000,	 0.000000,	 13.387172,	 5.154869,	 2.686413,	 0.372244 
4.658334,	 0.453251,	 1.000000,	 1.000000,	 0.000000,	 13.387172,	 5.154869,	 2.686413,	 0.372244 
4.675000,	 0.451039,	 1.000000,	 1.000000,	 0.000000,	 13.387172,	 5.154869,	 2.686413,	 0.372244 
4.691667,	 0.448829,	 1.000000,	 1.000000,	 0.000000,	 13.387172,	 5.154869,	 2.686413,	 0.372244 
4.708334,	 0.446617,	 1.000000,	 1.000000,	 0.000000,	 13.387172,	 5.154869,	 2.686413,	 0.372244 
4.725000,	 0.444406,	 1.000000,	 1.000000,	 0.000000,	 13.387172,	 5.154869,	 2.686413,	 0.372244 
4.741667,	 0.442195,	 1.000000,	 1.000000,	 0.000000,	 13.387172,	 5.154869,	 2.686413,	 0.372244 
4.758334,	 0.439984,	 1.000000,	 1.000000,	 0.000000,	 13.387172,	 5.154869,	 2.686413,	 0.372244 
4.775000,	 0.437772,	 1.000000,	 1.000000,	 0.000000,	 13.387172,	 5.154869,	 2.686413,	 0.372244 
4.791666,	 0.435561,	 1.000000,	 1.000000,	 0.000000,	 13.387172,	 5.154869,	 2.686413,	 0.372244 
4.808333,	 0.433350,	 1.000000,	 1.000000,	 0.000000,	 13.387172,	 5.154869,	 2.686413,	 0.372244 
4.825000,	 0.431138,	 1.000000,	 1.000000,	 0.000000,	 13.387172,	 5.154869,	 2.686413,	 0.372244 
4.841666,	 0.428928,	 1.000000,	 1.000000,	 0.000000,	 13.387172,	 5.154869,	 2.686413,	 0.372244 
4.858333,	 0.426716,	 1.000000,	 1.000000,	 0.000000,	 13.387172,	 5.154869,	 2.686413,	 0.372244 
4.875000,	 0.424505,	 1.000000,	 1.000000,	 0.000000,	 13.387172,	 5.154869,	 2.686413,	 0.372244 
4.891667,	 0.422294,	 1.000000,	 1.000000,	 0.000000,	 13.387172,	 5.154869,	 2.686413,	 0.372244 
4.908334,	 0.420083,	 1.000000,	 1.000000,	 0.000000,	 13.387172,	 5.154869,	 2.686413,	 0.372244 
4.925000,	 0.417871,	 1.000000,	 1.000000,	 0.000000,	 13.387172,	 5.154869,	 2.686413,	 0.372244 
4.941667,	 0.415660,	 1.000000,	 1.000000,	 0.000000,	 13.387172,	 5.154869,	 2.686413,	 0.372244 
4.958334,	 0.413449,	 1.000000,	 1.000000,	 0.000000,	 13.387172,	 5.154869,	 2.686413,	 0.372244 
4.975000,	 0.411238,	 1.000000,	 1.000000,	 0.000000,	 13.387172,	 5.154869,	 2.686413,	 0.372244 
4.991667,	 0.409027,	 1.000000,	 1.000000,	 0.000000,	 13.387172,	 5.154869,	 2.686413,	 0.372244 
0.008334,	 0.029703,	 1.000000,	 1.000000,	 0.000000,	 13.387172,	 5.154869,	 2.686413,	 0.372244 