TITLE = "Initial State"
VARIABLES = "X", "Y", "rho", "u", "v", "e", "p", "c", "M"
ZONE I=100, J=100, DATAPACKING=POINT
0.030000,	 0.007425,	 1.000000,	 1.000000,	 0.000000,	 0.946429,	 0.178571,	 0.500000,	 2.000000 
0.090000,	 0.007425,	 1.000000,	 1.000000,	 0.000000,	 0.946429,	 0.178571,	 0.500000,	 2.000000 
0.150000,	 0.007425,	 1.000000,	 1.000000,	 0.000000,	 0.946429,	 0.178571,	 0.500000,	 2.000000 
0.210000,	 0.007425,	 1.000000,	 1.000000,	 0.000000,	 0.946429,	 0.178571,	 0.500000,	 2.000000 
0.270000,	 0.007425,	 1.000000,	 1.000000,	 0.000000,	 0.946429,	 0.178571,	 0.500000,	 2.000000 
0.330000,	 0.007425,	 1.000000,	 1.000000,	 0.000000,	 0.946429,	 0.178571,	 0.500000,	 2.000000 
0.390000,	 0.007425,	 1.000000,	 1.000000,	 0.000000,	 0.946429,	 0.178571,	 0.500000,	 2.000000 
0.450000,	 0.007425,	 1.000000,	 1.000000,	 0.000000,	 0.946429,	 0.178571,	 0.500000,	 2.000000 
0.510000,	 0.007425,	 1.000000,	 1.000000,	 0.000000,	 0.946429,	 0.178571,	 0.500000,	 2.000000 
0.570000,	 0.007425,	 1.000000,	 1.000000,	 0.000000,	 0.946429,	 0.178571,	 0.500000,	 2.000000 
0.630000,	 0.007425,	 1.000000,	 1.000000,	 0.000000,	 0.946429,	 0.178571,	 0.500000,	 2.000000 
0.690000,	 0.007425,	 1.000000,	 1.000000,	 0.000000,	 0.946429,	 0.178571,	 0.500000,	 2.000000 
0.750000,	 0.007425,	 1.000000,	 1.000000,	 0.000000,	 0.946429,	 0.178571,	 0.500000,	 2.000000 
0.810000,	 0.007425,	 1.000000,	 1.000000,	 0.000000,	 0.946429,	 0.178571,	 0.500000,	 2.000000 
0.870000,	 0.007425,	 1.000000,	 1.000000,	 0.000000,	 0.946429,	 0.178571,	 0.500000,	 2.000000 
0.930000,	 0.007425,	 1.000000,	 1.000000,	 0.000000,	 0.946429,	 0.178571,	 0.500000,	 2.000000 
0.990000,	 0.009913,	 1.000000,	 1.000000,	 0.000000,	 0.946429,	 0.178571,	 0.500000,	 2.000000 
1.050000,	 0.019864,	 1.000000,	 1.000000,	 0.000000,	 0.946429,	 0.178571,	 0.500000,	 2.000000 
1.110000,	 0.034790,	 1.000000,	 1.000000,	 0.000000,	 0.946429,	 0.178571,	 0.500000,	 2.000000 
1.170000,	 0.049715,	 1.000000,	 1.000000,	 0.000000,	 0.946429,	 0.178571,	 0.500000,	 2.000000 
1.230000,	 0.064641,	 1.000000,	 1.000000,	 0.000000,	 0.946429,	 0.178571,	 0.500000,	 2.000000 
1.290000,	 0.079567,	 1.000000,	 1.000000,	 0.000000,	 0.946429,	 0.178571,	 0.500000,	 2.000000 
1.350000,	 0.094493,	 1.000000,	 1.000000,	 0.000000,	 0.946429,	 0.178571,	 0.500000,	 2.000000 
1.410000,	 0.109418,	 1.000000,	 1.000000,	 0.000000,	 0.946429,	 0.178571,	 0.500000,	 2.000000 
1.470000,	 0.124344,	 1.000000,	 1.000000,	 0.000000,	 0.946429,	 0.178571,	 0.500000,	 2.000000 
1.530000,	 0.139270,	 1.000000,	 1.000000,	 0.000000,	 0.946429,	 0.178571,	 0.500000,	 2.000000 
1.590000,	 0.154195,	 1.000000,	 1.000000,	 0.000000,	 0.946429,	 0.178571,	 0.500000,	 2.000000 
1.650000,	 0.169121,	 1.000000,	 1.000000,	 0.000000,	 0.946429,	 0.178571,	 0.500000,	 2.000000 
1.710000,	 0.184047,	 1.000000,	 1.000000,	 0.000000,	 0.946429,	 0.178571,	 0.500000,	 2.000000 
1.770000,	 0.198973,	 1.000000,	 1.000000,	 0.000000,	 0.946429,	 0.178571,	 0.500000,	 2.000000 
1.830000,	 0.213898,	 1.000000,	 1.000000,	 0.000000,	 0.946429,	 0.178571,	 0.500000,	 2.000000 
1.890000,	 0.228824,	 1.000000,	 1.000000,	 0.000000,	 0.946429,	 0.178571,	 0.500000,	 2.000000 
1.950000,	 0.243750,	 1.000000,	 1.000000,	 0.000000,	 0.946429,	 0.178571,	 0.500000,	 2.000000 
2.010000,	 0.253701,	 1.000000,	 1.000000,	 0.000000,	 0.946429,	 0.178571,	 0.500000,	 2.000000 
2.070000,	 0.256188,	 1.000000,	 1.000000,	 0.000000,	 0.946429,	 0.178571,	 0.500000,	 2.000000 
2.130000,	 0.256188,	 1.000000,	 1.000000,	 0.000000,	 0.946429,	 0.178571,	 0.500000,	 2.000000 
2.190000,	 0.256188,	 1.000000,	 1.000000,	 0.000000,	 0.946429,	 0.178571,	 0.500000,	 2.000000 
2.250000,	 0.256188,	 1.000000,	 1.000000,	 0.000000,	 0.946429,	 0.178571,	 0.500000,	 2.000000 
2.310000,	 0.256188,	 1.000000,	 1.000000,	 0.000000,	 0.946429,	 0.178571,	 0.500000,	 2.000000 
2.370000,	 0.256188,	 1.000000,	 1.000000,	 0.000000,	 0.946429,	 0.178571,	 0.500000,	 2.000000 
2.430000,	 0.256188,	 1.000000,	 1.000000,	 0.000000,	 0.946429,	 0.178571,	 0.500000,	 2.000000 
2.490000,	 0.256188,	 1.000000,	 1.000000,	 0.000000,	 0.946429,	 0.178571,	 0.500000,	 2.000000 
2.550000,	 0.256188,	 1.000000,	 1.000000,	 0.000000,	 0.946429,	 0.178571,	 0.500000,	 2.000000 
2.610000,	 0.256188,	 1.000000,	 1.000000,	 0.000000,	 0.946429,	 0.178571,	 0.500000,	 2.000000 
2.670000,	 0.256188,	 1.000000,	 1.000000,	 0.000000,	 0.946429,	 0.178571,	 0.500000,	 2.000000 
2.730000,	 0.256188,	 1.000000,	 1.000000,	 0.000000,	 0.946429,	 0.178571,	 0.500000,	 2.000000 
2.790000,	 0.256188,	 1.000000,	 1.000000,	 0.000000,	 0.946429,	 0.178571,	 0.500000,	 2.000000 
2.850000,	 0.256188,	 1.000000,	 1.000000,	 0.000000,	 0.946429,	 0.178571,	 0.500000,	 2.000000 
2.910000,	 0.256188,	 1.000000,	 1.000000,	 0.000000,	 0.946429,	 0.178571,	 0.500000,	 2.000000 
2.970000,	 0.256188,	 1.000000,	 1.000000,	 0.000000,	 0.946429,	 0.178571,	 0.500000,	 2.000000 
3.030000,	 0.256188,	 1.000000,	 1.000000,	 0.000000,	 0.946429,	 0.178571,	 0.500000,	 2.000000 
3.090000,	 0.256188,	 1.000000,	 1.000000,	 0.000000,	 0.946429,	 0.178571,	 0.500000,	 2.000000 
3.150000,	 0.256188,	 1.000000,	 1.000000,	 0.000000,	 0.946429,	 0.178571,	 0.500000,	 2.000000 
3.210000,	 0.256188,	 1.000000,	 1.000000,	 0.000000,	 0.946429,	 0.178571,	 0.500000,	 2.000000 
3.270000,	 0.256188,	 1.000000,	 1.000000,	 0.000000,	 0.946429,	 0.178571,	 0.500000,	 2.000000 
3.330000,	 0.256188,	 1.000000,	 1.000000,	 0.000000,	 0.946429,	 0.178571,	 0.500000,	 2.000000 
3.390000,	 0.256188,	 1.000000,	 1.000000,	 0.000000,	 0.946429,	 0.178571,	 0.500000,	 2.000000 
3.450000,	 0.256188,	 1.000000,	 1.000000,	 0.000000,	 0.946429,	 0.178571,	 0.500000,	 2.000000 
3.510000,	 0.256188,	 1.000000,	 1.000000,	 0.000000,	 0.946429,	 0.178571,	 0.500000,	 2.000000 
3.570000,	 0.256188,	 1.000000,	 1.000000,	 0.000000,	 0.946429,	 0.178571,	 0.500000,	 2.000000 
3.630000,	 0.256188,	 1.000000,	 1.000000,	 0.000000,	 0.946429,	 0.178571,	 0.500000,	 2.000000 
3.690000,	 0.256188,	 1.000000,	 1.000000,	 0.000000,	 0.946429,	 0.178571,	 0.500000,	 2.000000 
3.750000,	 0.256188,	 1.000000,	 1.000000,	 0.000000,	 0.946429,	 0.178571,	 0.500000,	 2.000000 
3.810000,	 0.256188,	 1.000000,	 1.000000,	 0.000000,	 0.946429,	 0.178571,	 0.500000,	 2.000000 
3.870000,	 0.256188,	 1.000000,	 1.000000,	 0.000000,	 0.946429,	 0.178571,	 0.500000,	 2.000000 
3.930000,	 0.256188,	 1.000000,	 1.000000,	 0.000000,	 0.946429,	 0.178571,	 0.500000,	 2.000000 
3.990000,	 0.256188,	 1.000000,	 1.000000,	 0.000000,	 0.946429,	 0.178571,	 0.500000,	 2.000000 
4.050000,	 0.256188,	 1.000000,	 1.000000,	 0.000000,	 0.946429,	 0.178571,	 0.500000,	 2.000000 
4.110000,	 0.256188,	 1.000000,	 1.000000,	 0.000000,	 0.946429,	 0.178571,	 0.500000,	 2.000000 
4.170000,	 0.256188,	 1.000000,	 1.000000,	 0.000000,	 0.946429,	 0.178571,	 0.500000,	 2.000000 
4.230000,	 0.256188,	 1.000000,	 1.000000,	 0.000000,	 0.946429,	 0.178571,	 0.500000,	 2.000000 
4.290000,	 0.256188,	 1.000000,	 1.000000,	 0.000000,	 0.946429,	 0.178571,	 0.500000,	 2.000000 
4.350000,	 0.256188,	 1.000000,	 1.000000,	 0.000000,	 0.946429,	 0.178571,	 0.500000,	 2.000000 
4.410000,	 0.256188,	 1.000000,	 1.000000,	 0.000000,	 0.946429,	 0.178571,	 0.500000,	 2.000000 
4.470000,	 0.256188,	 1.000000,	 1.000000,	 0.000000,	 0.946429,	 0.178571,	 0.500000,	 2.000000 
4.530000,	 0.256188,	 1.000000,	 1.000000,	 0.000000,	 0.946429,	 0.178571,	 0.500000,	 2.000000 
4.590000,	 0.256188,	 1.000000,	 1.000000,	 0.000000,	 0.946429,	 0.178571,	 0.500000,	 2.000000 
4.650000,	 0.256188,	 1.000000,	 1.000000,	 0.000000,	 0.946429,	 0.178571,	 0.500000,	 2.000000 
4.710000,	 0.256188,	 1.000000,	 1.000000,	 0.000000,	 0.946429,	 0.178571,	 0.500000,	 2.000000 
4.770000,	 0.256188,	 1.000000,	 1.000000,	 0.000000,	 0.946429,	 0.178571,	 0.500000,	 2.000000 
4.830000,	 0.256188,	 1.000000,	 1.000000,	 0.000000,	 0.946429,	 0.178571,	 0.500000,	 2.000000 
4.890000,	 0.256188,	 1.000000,	 1.000000,	 0.000000,	 0.946429,	 0.178571,	 0.500000,	 2.000000 
4.950000,	 0.256188,	 1.000000,	 1.000000,	 0.000000,	 0.946429,	 0.178571,	 0.500000,	 2.000000 
5.010000,	 0.256188,	 1.000000,	 1.000000,	 0.000000,	 0.946429,	 0.178571,	 0.500000,	 2.000000 
5.070000,	 0.256188,	 1.000000,	 1.000000,	 0.000000,	 0.946429,	 0.178571,	 0.500000,	 2.000000 
5.130000,	 0.256188,	 1.000000,	 1.000000,	 0.000000,	 0.946429,	 0.178571,	 0.500000,	 2.000000 
5.190000,	 0.256188,	 1.000000,	 1.000000,	 0.000000,	 0.946429,	 0.178571,	 0.500000,	 2.000000 
5.250000,	 0.256188,	 1.000000,	 1.000000,	 0.000000,	 0.946429,	 0.178571,	 0.500000,	 2.000000 
5.310000,	 0.256188,	 1.000000,	 1.000000,	 0.000000,	 0.946429,	 0.178571,	 0.500000,	 2.000000 
5.370000,	 0.256188,	 1.000000,	 1.000000,	 0.000000,	 0.946429,	 0.178571,	 0.500000,	 2.000000 
5.430000,	 0.256188,	 1.000000,	 1.000000,	 0.000000,	 0.946429,	 0.178571,	 0.500000,	 2.000000 
5.490000,	 0.256188,	 1.000000,	 1.000000,	 0.000000,	 0.946429,	 0.178571,	 0.500000,	 2.000000 
5.550000,	 0.256188,	 1.000000,	 1.000000,	 0.000000,	 0.946429,	 0.178571,	 0.500000,	 2.000000 
5.610000,	 0.256188,	 1.000000,	 1.000000,	 0.000000,	 0.946429,	 0.178571,	 0.500000,	 2.000000 
5.670000,	 0.256188,	 1.000000,	 1.000000,	 0.000000,	 0.946429,	 0.178571,	 0.500000,	 2.000000 
5.730000,	 0.256188,	 1.000000,	 1.000000,	 0.000000,	 0.946429,	 0.178571,	 0.500000,	 2.000000 
5.790000,	 0.256188,	 1.000000,	 1.000000,	 0.000000,	 0.946429,	 0.178571,	 0.500000,	 2.000000 
5.850000,	 0.256188,	 1.000000,	 1.000000,	 0.000000,	 0.946429,	 0.178571,	 0.500000,	 2.000000 
5.910000,	 0.256188,	 1.000000,	 1.000000,	 0.000000,	 0.946429,	 0.178571,	 0.500000,	 2.000000 
5.970000,	 0.256188,	 1.000000,	 1.000000,	 0.000000,	 0.946429,	 0.178571,	 0.500000,	 2.000000 
0.030000,	 0.022277,	 1.000000,	 1.000000,	 0.000000,	 0.946429,	 0.178571,	 0.500000,	 2.000000 
0.090000,	 0.022277,	 1.000000,	 1.000000,	 0.000000,	 0.946429,	 0.178571,	 0.500000,	 2.000000 
0.150000,	 0.022277,	 1.000000,	 1.000000,	 0.000000,	 0.946429,	 0.178571,	 0.500000,	 2.000000 
0.210000,	 0.022277,	 1.000000,	 1.000000,	 0.000000,	 0.946429,	 0.178571,	 0.500000,	 2.000000 
0.270000,	 0.022277,	 1.000000,	 1.000000,	 0.000000,	 0.946429,	 0.178571,	 0.500000,	 2.000000 
0.330000,	 0.022277,	 1.000000,	 1.000000,	 0.000000,	 0.946429,	 0.178571,	 0.500000,	 2.000000 
0.390000,	 0.022277,	 1.000000,	 1.000000,	 0.000000,	 0.946429,	 0.178571,	 0.500000,	 2.000000 
0.450000,	 0.022277,	 1.000000,	 1.000000,	 0.000000,	 0.946429,	 0.178571,	 0.500000,	 2.000000 
0.510000,	 0.022277,	 1.000000,	 1.000000,	 0.000000,	 0.946429,	 0.178571,	 0.500000,	 2.000000 
0.570000,	 0.022277,	 1.000000,	 1.000000,	 0.000000,	 0.946429,	 0.178571,	 0.500000,	 2.000000 
0.630000,	 0.022277,	 1.000000,	 1.000000,	 0.000000,	 0.946429,	 0.178571,	 0.500000,	 2.000000 
0.690000,	 0.022277,	 1.000000,	 1.000000,	 0.000000,	 0.946429,	 0.178571,	 0.500000,	 2.000000 
0.750000,	 0.022277,	 1.000000,	 1.000000,	 0.000000,	 0.946429,	 0.178571,	 0.500000,	 2.000000 
0.810000,	 0.022277,	 1.000000,	 1.000000,	 0.000000,	 0.946429,	 0.178571,	 0.500000,	 2.000000 
0.870000,	 0.022277,	 1.000000,	 1.000000,	 0.000000,	 0.946429,	 0.178571,	 0.500000,	 2.000000 
0.930000,	 0.022277,	 1.000000,	 1.000000,	 0.000000,	 0.946429,	 0.178571,	 0.500000,	 2.000000 
0.990000,	 0.024740,	 1.000000,	 1.000000,	 0.000000,	 0.946429,	 0.178571,	 0.500000,	 2.000000 
1.050000,	 0.034591,	 1.000000,	 1.000000,	 0.000000,	 0.946429,	 0.178571,	 0.500000,	 2.000000 
1.110000,	 0.049369,	 1.000000,	 1.000000,	 0.000000,	 0.946429,	 0.178571,	 0.500000,	 2.000000 
1.170000,	 0.064146,	 1.000000,	 1.000000,	 0.000000,	 0.946429,	 0.178571,	 0.500000,	 2.000000 
1.230000,	 0.078923,	 1.000000,	 1.000000,	 0.000000,	 0.946429,	 0.178571,	 0.500000,	 2.000000 
1.290000,	 0.093701,	 1.000000,	 1.000000,	 0.000000,	 0.946429,	 0.178571,	 0.500000,	 2.000000 
1.350000,	 0.108478,	 1.000000,	 1.000000,	 0.000000,	 0.946429,	 0.178571,	 0.500000,	 2.000000 
1.410000,	 0.123255,	 1.000000,	 1.000000,	 0.000000,	 0.946429,	 0.178571,	 0.500000,	 2.000000 
1.470000,	 0.138032,	 1.000000,	 1.000000,	 0.000000,	 0.946429,	 0.178571,	 0.500000,	 2.000000 
1.530000,	 0.152809,	 1.000000,	 1.000000,	 0.000000,	 0.946429,	 0.178571,	 0.500000,	 2.000000 
1.590000,	 0.167587,	 1.000000,	 1.000000,	 0.000000,	 0.946429,	 0.178571,	 0.500000,	 2.000000 
1.650000,	 0.182364,	 1.000000,	 1.000000,	 0.000000,	 0.946429,	 0.178571,	 0.500000,	 2.000000 
1.710000,	 0.197141,	 1.000000,	 1.000000,	 0.000000,	 0.946429,	 0.178571,	 0.500000,	 2.000000 
1.770000,	 0.211919,	 1.000000,	 1.000000,	 0.000000,	 0.946429,	 0.178571,	 0.500000,	 2.000000 
1.830000,	 0.226696,	 1.000000,	 1.000000,	 0.000000,	 0.946429,	 0.178571,	 0.500000,	 2.000000 
1.890000,	 0.241473,	 1.000000,	 1.000000,	 0.000000,	 0.946429,	 0.178571,	 0.500000,	 2.000000 
1.950000,	 0.256250,	 1.000000,	 1.000000,	 0.000000,	 0.946429,	 0.178571,	 0.500000,	 2.000000 
2.010000,	 0.266101,	 1.000000,	 1.000000,	 0.000000,	 0.946429,	 0.178571,	 0.500000,	 2.000000 
2.070000,	 0.268564,	 1.000000,	 1.000000,	 0.000000,	 0.946429,	 0.178571,	 0.500000,	 2.000000 
2.130000,	 0.268564,	 1.000000,	 1.000000,	 0.000000,	 0.946429,	 0.178571,	 0.500000,	 2.000000 
2.190000,	 0.268564,	 1.000000,	 1.000000,	 0.000000,	 0.946429,	 0.178571,	 0.500000,	 2.000000 
2.250000,	 0.268564,	 1.000000,	 1.000000,	 0.000000,	 0.946429,	 0.178571,	 0.500000,	 2.000000 
2.310000,	 0.268564,	 1.000000,	 1.000000,	 0.000000,	 0.946429,	 0.178571,	 0.500000,	 2.000000 
2.370000,	 0.268564,	 1.000000,	 1.000000,	 0.000000,	 0.946429,	 0.178571,	 0.500000,	 2.000000 
2.430000,	 0.268564,	 1.000000,	 1.000000,	 0.000000,	 0.946429,	 0.178571,	 0.500000,	 2.000000 
2.490000,	 0.268564,	 1.000000,	 1.000000,	 0.000000,	 0.946429,	 0.178571,	 0.500000,	 2.000000 
2.550000,	 0.268564,	 1.000000,	 1.000000,	 0.000000,	 0.946429,	 0.178571,	 0.500000,	 2.000000 
2.610000,	 0.268564,	 1.000000,	 1.000000,	 0.000000,	 0.946429,	 0.178571,	 0.500000,	 2.000000 
2.670000,	 0.268564,	 1.000000,	 1.000000,	 0.000000,	 0.946429,	 0.178571,	 0.500000,	 2.000000 
2.730000,	 0.268564,	 1.000000,	 1.000000,	 0.000000,	 0.946429,	 0.178571,	 0.500000,	 2.000000 
2.790000,	 0.268564,	 1.000000,	 1.000000,	 0.000000,	 0.946429,	 0.178571,	 0.500000,	 2.000000 
2.850000,	 0.268564,	 1.000000,	 1.000000,	 0.000000,	 0.946429,	 0.178571,	 0.500000,	 2.000000 
2.910000,	 0.268564,	 1.000000,	 1.000000,	 0.000000,	 0.946429,	 0.178571,	 0.500000,	 2.000000 
2.970000,	 0.268564,	 1.000000,	 1.000000,	 0.000000,	 0.946429,	 0.178571,	 0.500000,	 2.000000 
3.030000,	 0.268564,	 1.000000,	 1.000000,	 0.000000,	 0.946429,	 0.178571,	 0.500000,	 2.000000 
3.090000,	 0.268564,	 1.000000,	 1.000000,	 0.000000,	 0.946429,	 0.178571,	 0.500000,	 2.000000 
3.150000,	 0.268564,	 1.000000,	 1.000000,	 0.000000,	 0.946429,	 0.178571,	 0.500000,	 2.000000 
3.210000,	 0.268564,	 1.000000,	 1.000000,	 0.000000,	 0.946429,	 0.178571,	 0.500000,	 2.000000 
3.270000,	 0.268564,	 1.000000,	 1.000000,	 0.000000,	 0.946429,	 0.178571,	 0.500000,	 2.000000 
3.330000,	 0.268564,	 1.000000,	 1.000000,	 0.000000,	 0.946429,	 0.178571,	 0.500000,	 2.000000 
3.390000,	 0.268564,	 1.000000,	 1.000000,	 0.000000,	 0.946429,	 0.178571,	 0.500000,	 2.000000 
3.450000,	 0.268564,	 1.000000,	 1.000000,	 0.000000,	 0.946429,	 0.178571,	 0.500000,	 2.000000 
3.510000,	 0.268564,	 1.000000,	 1.000000,	 0.000000,	 0.946429,	 0.178571,	 0.500000,	 2.000000 
3.570000,	 0.268564,	 1.000000,	 1.000000,	 0.000000,	 0.946429,	 0.178571,	 0.500000,	 2.000000 
3.630000,	 0.268564,	 1.000000,	 1.000000,	 0.000000,	 0.946429,	 0.178571,	 0.500000,	 2.000000 
3.690000,	 0.268564,	 1.000000,	 1.000000,	 0.000000,	 0.946429,	 0.178571,	 0.500000,	 2.000000 
3.750000,	 0.268564,	 1.000000,	 1.000000,	 0.000000,	 0.946429,	 0.178571,	 0.500000,	 2.000000 
3.810000,	 0.268564,	 1.000000,	 1.000000,	 0.000000,	 0.946429,	 0.178571,	 0.500000,	 2.000000 
3.870000,	 0.268564,	 1.000000,	 1.000000,	 0.000000,	 0.946429,	 0.178571,	 0.500000,	 2.000000 
3.930000,	 0.268564,	 1.000000,	 1.000000,	 0.000000,	 0.946429,	 0.178571,	 0.500000,	 2.000000 
3.990000,	 0.268564,	 1.000000,	 1.000000,	 0.000000,	 0.946429,	 0.178571,	 0.500000,	 2.000000 
4.050000,	 0.268564,	 1.000000,	 1.000000,	 0.000000,	 0.946429,	 0.178571,	 0.500000,	 2.000000 
4.110000,	 0.268564,	 1.000000,	 1.000000,	 0.000000,	 0.946429,	 0.178571,	 0.500000,	 2.000000 
4.170000,	 0.268564,	 1.000000,	 1.000000,	 0.000000,	 0.946429,	 0.178571,	 0.500000,	 2.000000 
4.230000,	 0.268564,	 1.000000,	 1.000000,	 0.000000,	 0.946429,	 0.178571,	 0.500000,	 2.000000 
4.290000,	 0.268564,	 1.000000,	 1.000000,	 0.000000,	 0.946429,	 0.178571,	 0.500000,	 2.000000 
4.350000,	 0.268564,	 1.000000,	 1.000000,	 0.000000,	 0.946429,	 0.178571,	 0.500000,	 2.000000 
4.410000,	 0.268564,	 1.000000,	 1.000000,	 0.000000,	 0.946429,	 0.178571,	 0.500000,	 2.000000 
4.470000,	 0.268564,	 1.000000,	 1.000000,	 0.000000,	 0.946429,	 0.178571,	 0.500000,	 2.000000 
4.530000,	 0.268564,	 1.000000,	 1.000000,	 0.000000,	 0.946429,	 0.178571,	 0.500000,	 2.000000 
4.590000,	 0.268564,	 1.000000,	 1.000000,	 0.000000,	 0.946429,	 0.178571,	 0.500000,	 2.000000 
4.650000,	 0.268564,	 1.000000,	 1.000000,	 0.000000,	 0.946429,	 0.178571,	 0.500000,	 2.000000 
4.710000,	 0.268564,	 1.000000,	 1.000000,	 0.000000,	 0.946429,	 0.178571,	 0.500000,	 2.000000 
4.770000,	 0.268564,	 1.000000,	 1.000000,	 0.000000,	 0.946429,	 0.178571,	 0.500000,	 2.000000 
4.830000,	 0.268564,	 1.000000,	 1.000000,	 0.000000,	 0.946429,	 0.178571,	 0.500000,	 2.000000 
4.890000,	 0.268564,	 1.000000,	 1.000000,	 0.000000,	 0.946429,	 0.178571,	 0.500000,	 2.000000 
4.950000,	 0.268564,	 1.000000,	 1.000000,	 0.000000,	 0.946429,	 0.178571,	 0.500000,	 2.000000 
5.010000,	 0.268564,	 1.000000,	 1.000000,	 0.000000,	 0.946429,	 0.178571,	 0.500000,	 2.000000 
5.070000,	 0.268564,	 1.000000,	 1.000000,	 0.000000,	 0.946429,	 0.178571,	 0.500000,	 2.000000 
5.130000,	 0.268564,	 1.000000,	 1.000000,	 0.000000,	 0.946429,	 0.178571,	 0.500000,	 2.000000 
5.190000,	 0.268564,	 1.000000,	 1.000000,	 0.000000,	 0.946429,	 0.178571,	 0.500000,	 2.000000 
5.250000,	 0.268564,	 1.000000,	 1.000000,	 0.000000,	 0.946429,	 0.178571,	 0.500000,	 2.000000 
5.310000,	 0.268564,	 1.000000,	 1.000000,	 0.000000,	 0.946429,	 0.178571,	 0.500000,	 2.000000 
5.370000,	 0.268564,	 1.000000,	 1.000000,	 0.000000,	 0.946429,	 0.178571,	 0.500000,	 2.000000 
5.430000,	 0.268564,	 1.000000,	 1.000000,	 0.000000,	 0.946429,	 0.178571,	 0.500000,	 2.000000 
5.490000,	 0.268564,	 1.000000,	 1.000000,	 0.000000,	 0.946429,	 0.178571,	 0.500000,	 2.000000 
5.550000,	 0.268564,	 1.000000,	 1.000000,	 0.000000,	 0.946429,	 0.178571,	 0.500000,	 2.000000 
5.610000,	 0.268564,	 1.000000,	 1.000000,	 0.000000,	 0.946429,	 0.178571,	 0.500000,	 2.000000 
5.670000,	 0.268564,	 1.000000,	 1.000000,	 0.000000,	 0.946429,	 0.178571,	 0.500000,	 2.000000 
5.730000,	 0.268564,	 1.000000,	 1.000000,	 0.000000,	 0.946429,	 0.178571,	 0.500000,	 2.000000 
5.790000,	 0.268564,	 1.000000,	 1.000000,	 0.000000,	 0.946429,	 0.178571,	 0.500000,	 2.000000 
5.850000,	 0.268564,	 1.000000,	 1.000000,	 0.000000,	 0.946429,	 0.178571,	 0.500000,	 2.000000 
5.910000,	 0.268564,	 1.000000,	 1.000000,	 0.000000,	 0.946429,	 0.178571,	 0.500000,	 2.000000 
5.970000,	 0.268564,	 1.000000,	 1.000000,	 0.000000,	 0.946429,	 0.178571,	 0.500000,	 2.000000 
0.030000,	 0.037129,	 1.000000,	 1.000000,	 0.000000,	 0.946429,	 0.178571,	 0.500000,	 2.000000 
0.090000,	 0.037129,	 1.000000,	 1.000000,	 0.000000,	 0.946429,	 0.178571,	 0.500000,	 2.000000 
0.150000,	 0.037129,	 1.000000,	 1.000000,	 0.000000,	 0.946429,	 0.178571,	 0.500000,	 2.000000 
0.210000,	 0.037129,	 1.000000,	 1.000000,	 0.000000,	 0.946429,	 0.178571,	 0.500000,	 2.000000 
0.270000,	 0.037129,	 1.000000,	 1.000000,	 0.000000,	 0.946429,	 0.178571,	 0.500000,	 2.000000 
0.330000,	 0.037129,	 1.000000,	 1.000000,	 0.000000,	 0.946429,	 0.178571,	 0.500000,	 2.000000 
0.390000,	 0.037129,	 1.000000,	 1.000000,	 0.000000,	 0.946429,	 0.178571,	 0.500000,	 2.000000 
0.450000,	 0.037129,	 1.000000,	 1.000000,	 0.000000,	 0.946429,	 0.178571,	 0.500000,	 2.000000 
0.510000,	 0.037129,	 1.000000,	 1.000000,	 0.000000,	 0.946429,	 0.178571,	 0.500000,	 2.000000 
0.570000,	 0.037129,	 1.000000,	 1.000000,	 0.000000,	 0.946429,	 0.178571,	 0.500000,	 2.000000 
0.630000,	 0.037129,	 1.000000,	 1.000000,	 0.000000,	 0.946429,	 0.178571,	 0.500000,	 2.000000 
0.690000,	 0.037129,	 1.000000,	 1.000000,	 0.000000,	 0.946429,	 0.178571,	 0.500000,	 2.000000 
0.750000,	 0.037129,	 1.000000,	 1.000000,	 0.000000,	 0.946429,	 0.178571,	 0.500000,	 2.000000 
0.810000,	 0.037129,	 1.000000,	 1.000000,	 0.000000,	 0.946429,	 0.178571,	 0.500000,	 2.000000 
0.870000,	 0.037129,	 1.000000,	 1.000000,	 0.000000,	 0.946429,	 0.178571,	 0.500000,	 2.000000 
0.930000,	 0.037129,	 1.000000,	 1.000000,	 0.000000,	 0.946429,	 0.178571,	 0.500000,	 2.000000 
0.990000,	 0.039567,	 1.000000,	 1.000000,	 0.000000,	 0.946429,	 0.178571,	 0.500000,	 2.000000 
1.050000,	 0.049319,	 1.000000,	 1.000000,	 0.000000,	 0.946429,	 0.178571,	 0.500000,	 2.000000 
1.110000,	 0.063948,	 1.000000,	 1.000000,	 0.000000,	 0.946429,	 0.178571,	 0.500000,	 2.000000 
1.170000,	 0.078577,	 1.000000,	 1.000000,	 0.000000,	 0.946429,	 0.178571,	 0.500000,	 2.000000 
1.230000,	 0.093205,	 1.000000,	 1.000000,	 0.000000,	 0.946429,	 0.178571,	 0.500000,	 2.000000 
1.290000,	 0.107834,	 1.000000,	 1.000000,	 0.000000,	 0.946429,	 0.178571,	 0.500000,	 2.000000 
1.350000,	 0.122463,	 1.000000,	 1.000000,	 0.000000,	 0.946429,	 0.178571,	 0.500000,	 2.000000 
1.410000,	 0.137092,	 1.000000,	 1.000000,	 0.000000,	 0.946429,	 0.178571,	 0.500000,	 2.000000 
1.470000,	 0.151721,	 1.000000,	 1.000000,	 0.000000,	 0.946429,	 0.178571,	 0.500000,	 2.000000 
1.530000,	 0.166349,	 1.000000,	 1.000000,	 0.000000,	 0.946429,	 0.178571,	 0.500000,	 2.000000 
1.590000,	 0.180978,	 1.000000,	 1.000000,	 0.000000,	 0.946429,	 0.178571,	 0.500000,	 2.000000 
1.650000,	 0.195607,	 1.000000,	 1.000000,	 0.000000,	 0.946429,	 0.178571,	 0.500000,	 2.000000 
1.710000,	 0.210235,	 1.000000,	 1.000000,	 0.000000,	 0.946429,	 0.178571,	 0.500000,	 2.000000 
1.770000,	 0.224864,	 1.000000,	 1.000000,	 0.000000,	 0.946429,	 0.178571,	 0.500000,	 2.000000 
1.830000,	 0.239493,	 1.000000,	 1.000000,	 0.000000,	 0.946429,	 0.178571,	 0.500000,	 2.000000 
1.890000,	 0.254122,	 1.000000,	 1.000000,	 0.000000,	 0.946429,	 0.178571,	 0.500000,	 2.000000 
1.950000,	 0.268750,	 1.000000,	 1.000000,	 0.000000,	 0.946429,	 0.178571,	 0.500000,	 2.000000 
2.010000,	 0.278502,	 1.000000,	 1.000000,	 0.000000,	 0.946429,	 0.178571,	 0.500000,	 2.000000 
2.070000,	 0.280941,	 1.000000,	 1.000000,	 0.000000,	 0.946429,	 0.178571,	 0.500000,	 2.000000 
2.130000,	 0.280941,	 1.000000,	 1.000000,	 0.000000,	 0.946429,	 0.178571,	 0.500000,	 2.000000 
2.190000,	 0.280941,	 1.000000,	 1.000000,	 0.000000,	 0.946429,	 0.178571,	 0.500000,	 2.000000 
2.250000,	 0.280941,	 1.000000,	 1.000000,	 0.000000,	 0.946429,	 0.178571,	 0.500000,	 2.000000 
2.310000,	 0.280941,	 1.000000,	 1.000000,	 0.000000,	 0.946429,	 0.178571,	 0.500000,	 2.000000 
2.370000,	 0.280941,	 1.000000,	 1.000000,	 0.000000,	 0.946429,	 0.178571,	 0.500000,	 2.000000 
2.430000,	 0.280941,	 1.000000,	 1.000000,	 0.000000,	 0.946429,	 0.178571,	 0.500000,	 2.000000 
2.490000,	 0.280941,	 1.000000,	 1.000000,	 0.000000,	 0.946429,	 0.178571,	 0.500000,	 2.000000 
2.550000,	 0.280941,	 1.000000,	 1.000000,	 0.000000,	 0.946429,	 0.178571,	 0.500000,	 2.000000 
2.610000,	 0.280941,	 1.000000,	 1.000000,	 0.000000,	 0.946429,	 0.178571,	 0.500000,	 2.000000 
2.670000,	 0.280941,	 1.000000,	 1.000000,	 0.000000,	 0.946429,	 0.178571,	 0.500000,	 2.000000 
2.730000,	 0.280941,	 1.000000,	 1.000000,	 0.000000,	 0.946429,	 0.178571,	 0.500000,	 2.000000 
2.790000,	 0.280941,	 1.000000,	 1.000000,	 0.000000,	 0.946429,	 0.178571,	 0.500000,	 2.000000 
2.850000,	 0.280941,	 1.000000,	 1.000000,	 0.000000,	 0.946429,	 0.178571,	 0.500000,	 2.000000 
2.910000,	 0.280941,	 1.000000,	 1.000000,	 0.000000,	 0.946429,	 0.178571,	 0.500000,	 2.000000 
2.970000,	 0.280941,	 1.000000,	 1.000000,	 0.000000,	 0.946429,	 0.178571,	 0.500000,	 2.000000 
3.030000,	 0.280941,	 1.000000,	 1.000000,	 0.000000,	 0.946429,	 0.178571,	 0.500000,	 2.000000 
3.090000,	 0.280941,	 1.000000,	 1.000000,	 0.000000,	 0.946429,	 0.178571,	 0.500000,	 2.000000 
3.150000,	 0.280941,	 1.000000,	 1.000000,	 0.000000,	 0.946429,	 0.178571,	 0.500000,	 2.000000 
3.210000,	 0.280941,	 1.000000,	 1.000000,	 0.000000,	 0.946429,	 0.178571,	 0.500000,	 2.000000 
3.270000,	 0.280941,	 1.000000,	 1.000000,	 0.000000,	 0.946429,	 0.178571,	 0.500000,	 2.000000 
3.330000,	 0.280941,	 1.000000,	 1.000000,	 0.000000,	 0.946429,	 0.178571,	 0.500000,	 2.000000 
3.390000,	 0.280941,	 1.000000,	 1.000000,	 0.000000,	 0.946429,	 0.178571,	 0.500000,	 2.000000 
3.450000,	 0.280941,	 1.000000,	 1.000000,	 0.000000,	 0.946429,	 0.178571,	 0.500000,	 2.000000 
3.510000,	 0.280941,	 1.000000,	 1.000000,	 0.000000,	 0.946429,	 0.178571,	 0.500000,	 2.000000 
3.570000,	 0.280941,	 1.000000,	 1.000000,	 0.000000,	 0.946429,	 0.178571,	 0.500000,	 2.000000 
3.630000,	 0.280941,	 1.000000,	 1.000000,	 0.000000,	 0.946429,	 0.178571,	 0.500000,	 2.000000 
3.690000,	 0.280941,	 1.000000,	 1.000000,	 0.000000,	 0.946429,	 0.178571,	 0.500000,	 2.000000 
3.750000,	 0.280941,	 1.000000,	 1.000000,	 0.000000,	 0.946429,	 0.178571,	 0.500000,	 2.000000 
3.810000,	 0.280941,	 1.000000,	 1.000000,	 0.000000,	 0.946429,	 0.178571,	 0.500000,	 2.000000 
3.870000,	 0.280941,	 1.000000,	 1.000000,	 0.000000,	 0.946429,	 0.178571,	 0.500000,	 2.000000 
3.930000,	 0.280941,	 1.000000,	 1.000000,	 0.000000,	 0.946429,	 0.178571,	 0.500000,	 2.000000 
3.990000,	 0.280941,	 1.000000,	 1.000000,	 0.000000,	 0.946429,	 0.178571,	 0.500000,	 2.000000 
4.050000,	 0.280941,	 1.000000,	 1.000000,	 0.000000,	 0.946429,	 0.178571,	 0.500000,	 2.000000 
4.110000,	 0.280941,	 1.000000,	 1.000000,	 0.000000,	 0.946429,	 0.178571,	 0.500000,	 2.000000 
4.170000,	 0.280941,	 1.000000,	 1.000000,	 0.000000,	 0.946429,	 0.178571,	 0.500000,	 2.000000 
4.230000,	 0.280941,	 1.000000,	 1.000000,	 0.000000,	 0.946429,	 0.178571,	 0.500000,	 2.000000 
4.290000,	 0.280941,	 1.000000,	 1.000000,	 0.000000,	 0.946429,	 0.178571,	 0.500000,	 2.000000 
4.350000,	 0.280941,	 1.000000,	 1.000000,	 0.000000,	 0.946429,	 0.178571,	 0.500000,	 2.000000 
4.410000,	 0.280941,	 1.000000,	 1.000000,	 0.000000,	 0.946429,	 0.178571,	 0.500000,	 2.000000 
4.470000,	 0.280941,	 1.000000,	 1.000000,	 0.000000,	 0.946429,	 0.178571,	 0.500000,	 2.000000 
4.530000,	 0.280941,	 1.000000,	 1.000000,	 0.000000,	 0.946429,	 0.178571,	 0.500000,	 2.000000 
4.590000,	 0.280941,	 1.000000,	 1.000000,	 0.000000,	 0.946429,	 0.178571,	 0.500000,	 2.000000 
4.650000,	 0.280941,	 1.000000,	 1.000000,	 0.000000,	 0.946429,	 0.178571,	 0.500000,	 2.000000 
4.710000,	 0.280941,	 1.000000,	 1.000000,	 0.000000,	 0.946429,	 0.178571,	 0.500000,	 2.000000 
4.770000,	 0.280941,	 1.000000,	 1.000000,	 0.000000,	 0.946429,	 0.178571,	 0.500000,	 2.000000 
4.830000,	 0.280941,	 1.000000,	 1.000000,	 0.000000,	 0.946429,	 0.178571,	 0.500000,	 2.000000 
4.890000,	 0.280941,	 1.000000,	 1.000000,	 0.000000,	 0.946429,	 0.178571,	 0.500000,	 2.000000 
4.950000,	 0.280941,	 1.000000,	 1.000000,	 0.000000,	 0.946429,	 0.178571,	 0.500000,	 2.000000 
5.010000,	 0.280941,	 1.000000,	 1.000000,	 0.000000,	 0.946429,	 0.178571,	 0.500000,	 2.000000 
5.070000,	 0.280941,	 1.000000,	 1.000000,	 0.000000,	 0.946429,	 0.178571,	 0.500000,	 2.000000 
5.130000,	 0.280941,	 1.000000,	 1.000000,	 0.000000,	 0.946429,	 0.178571,	 0.500000,	 2.000000 
5.190000,	 0.280941,	 1.000000,	 1.000000,	 0.000000,	 0.946429,	 0.178571,	 0.500000,	 2.000000 
5.250000,	 0.280941,	 1.000000,	 1.000000,	 0.000000,	 0.946429,	 0.178571,	 0.500000,	 2.000000 
5.310000,	 0.280941,	 1.000000,	 1.000000,	 0.000000,	 0.946429,	 0.178571,	 0.500000,	 2.000000 
5.370000,	 0.280941,	 1.000000,	 1.000000,	 0.000000,	 0.946429,	 0.178571,	 0.500000,	 2.000000 
5.430000,	 0.280941,	 1.000000,	 1.000000,	 0.000000,	 0.946429,	 0.178571,	 0.500000,	 2.000000 
5.490000,	 0.280941,	 1.000000,	 1.000000,	 0.000000,	 0.946429,	 0.178571,	 0.500000,	 2.000000 
5.550000,	 0.280941,	 1.000000,	 1.000000,	 0.000000,	 0.946429,	 0.178571,	 0.500000,	 2.000000 
5.610000,	 0.280941,	 1.000000,	 1.000000,	 0.000000,	 0.946429,	 0.178571,	 0.500000,	 2.000000 
5.670000,	 0.280941,	 1.000000,	 1.000000,	 0.000000,	 0.946429,	 0.178571,	 0.500000,	 2.000000 
5.730000,	 0.280941,	 1.000000,	 1.000000,	 0.000000,	 0.946429,	 0.178571,	 0.500000,	 2.000000 
5.790000,	 0.280941,	 1.000000,	 1.000000,	 0.000000,	 0.946429,	 0.178571,	 0.500000,	 2.000000 
5.850000,	 0.280941,	 1.000000,	 1.000000,	 0.000000,	 0.946429,	 0.178571,	 0.500000,	 2.000000 
5.910000,	 0.280941,	 1.000000,	 1.000000,	 0.000000,	 0.946429,	 0.178571,	 0.500000,	 2.000000 
5.970000,	 0.280941,	 1.000000,	 1.000000,	 0.000000,	 0.946429,	 0.178571,	 0.500000,	 2.000000 
0.030000,	 0.051980,	 1.000000,	 1.000000,	 0.000000,	 0.946429,	 0.178571,	 0.500000,	 2.000000 
0.090000,	 0.051980,	 1.000000,	 1.000000,	 0.000000,	 0.946429,	 0.178571,	 0.500000,	 2.000000 
0.150000,	 0.051980,	 1.000000,	 1.000000,	 0.000000,	 0.946429,	 0.178571,	 0.500000,	 2.000000 
0.210000,	 0.051980,	 1.000000,	 1.000000,	 0.000000,	 0.946429,	 0.178571,	 0.500000,	 2.000000 