TITLE = "Initial State"
VARIABLES = "X", "Y", "rho", "u", "v", "e"
ZONE I=100, J=100, DATAPACKING=POINT
0.015000,	0.004951,	1.000000,	1.000000,	0.000000,	7.642857
0.045000,	0.004951,	1.000000,	1.000000,	0.000000,	7.642857
0.075000,	0.004951,	1.000000,	1.000000,	0.000000,	7.642857
0.105000,	0.004951,	1.000000,	1.000000,	0.000000,	7.642857
0.135000,	0.004951,	1.000000,	1.000000,	0.000000,	7.642857
0.165000,	0.004951,	1.000000,	1.000000,	0.000000,	7.642857
0.195000,	0.004951,	1.000000,	1.000000,	0.000000,	7.642857
0.225000,	0.004951,	1.000000,	1.000000,	0.000000,	7.642857
0.255000,	0.004951,	1.000000,	1.000000,	0.000000,	7.642857
0.285000,	0.004951,	1.000000,	1.000000,	0.000000,	7.642857
0.315000,	0.004951,	1.000000,	1.000000,	0.000000,	7.642857
0.345000,	0.004951,	1.000000,	1.000000,	0.000000,	7.642857
0.375000,	0.004951,	1.000000,	1.000000,	0.000000,	7.642857
0.405000,	0.004951,	1.000000,	1.000000,	0.000000,	7.642857
0.435000,	0.004951,	1.000000,	1.000000,	0.000000,	7.642857
0.465000,	0.004951,	1.000000,	1.000000,	0.000000,	7.642857
0.495000,	0.004951,	1.000000,	1.000000,	0.000000,	7.642857
0.525000,	0.004951,	1.000000,	1.000000,	0.000000,	7.642857
0.555000,	0.004951,	1.000000,	1.000000,	0.000000,	7.642857
0.585000,	0.004951,	1.000000,	1.000000,	0.000000,	7.642857
0.615000,	0.004951,	1.000000,	1.000000,	0.000000,	7.642857
0.645000,	0.004951,	1.000000,	1.000000,	0.000000,	7.642857
0.675000,	0.004951,	1.000000,	1.000000,	0.000000,	7.642857
0.705000,	0.004951,	1.000000,	1.000000,	0.000000,	7.642857
0.735000,	0.004951,	1.000000,	1.000000,	0.000000,	7.642857
0.765000,	0.004951,	1.000000,	1.000000,	0.000000,	7.642857
0.795000,	0.004951,	1.000000,	1.000000,	0.000000,	7.642857
0.825000,	0.004951,	1.000000,	1.000000,	0.000000,	7.642857
0.855000,	0.004951,	1.000000,	1.000000,	0.000000,	7.642857
0.885000,	0.004951,	1.000000,	1.000000,	0.000000,	7.642857
0.915000,	0.004951,	1.000000,	1.000000,	0.000000,	7.642857
0.945000,	0.004951,	1.000000,	1.000000,	0.000000,	7.642857
0.975000,	0.004951,	1.000000,	1.000000,	0.000000,	7.642857
1.005000,	0.007438,	1.000000,	1.000000,	0.000000,	7.642857
1.035000,	0.013657,	1.000000,	1.000000,	0.000000,	7.642857
1.065000,	0.021120,	1.000000,	1.000000,	0.000000,	7.642857
1.095000,	0.028583,	1.000000,	1.000000,	0.000000,	7.642857
1.125000,	0.036046,	1.000000,	1.000000,	0.000000,	7.642857
1.155000,	0.043509,	1.000000,	1.000000,	0.000000,	7.642857
1.185000,	0.050971,	1.000000,	1.000000,	0.000000,	7.642857
1.215000,	0.058435,	1.000000,	1.000000,	0.000000,	7.642857
1.245000,	0.065897,	1.000000,	1.000000,	0.000000,	7.642857
1.275000,	0.073360,	1.000000,	1.000000,	0.000000,	7.642857
1.305000,	0.080823,	1.000000,	1.000000,	0.000000,	7.642857
1.335000,	0.088286,	1.000000,	1.000000,	0.000000,	7.642857
1.365000,	0.095749,	1.000000,	1.000000,	0.000000,	7.642857
1.395000,	0.103211,	1.000000,	1.000000,	0.000000,	7.642857
1.425000,	0.110674,	1.000000,	1.000000,	0.000000,	7.642857
1.455000,	0.118138,	1.000000,	1.000000,	0.000000,	7.642857
1.485000,	0.125600,	1.000000,	1.000000,	0.000000,	7.642857
1.515000,	0.133063,	1.000000,	1.000000,	0.000000,	7.642857
1.545000,	0.140526,	1.000000,	1.000000,	0.000000,	7.642857
1.575000,	0.147989,	1.000000,	1.000000,	0.000000,	7.642857
1.605000,	0.155452,	1.000000,	1.000000,	0.000000,	7.642857
1.635000,	0.162915,	1.000000,	1.000000,	0.000000,	7.642857
1.665000,	0.170378,	1.000000,	1.000000,	0.000000,	7.642857
1.695000,	0.177841,	1.000000,	1.000000,	0.000000,	7.642857
1.725000,	0.185303,	1.000000,	1.000000,	0.000000,	7.642857
1.755000,	0.192766,	1.000000,	1.000000,	0.000000,	7.642857
1.785000,	0.200229,	1.000000,	1.000000,	0.000000,	7.642857
1.815000,	0.207692,	1.000000,	1.000000,	0.000000,	7.642857
1.845000,	0.215155,	1.000000,	1.000000,	0.000000,	7.642857
1.875000,	0.222617,	1.000000,	1.000000,	0.000000,	7.642857
1.905000,	0.230080,	1.000000,	1.000000,	0.000000,	7.642857
1.935000,	0.237544,	1.000000,	1.000000,	0.000000,	7.642857
1.965000,	0.245006,	1.000000,	1.000000,	0.000000,	7.642857
1.995000,	0.251225,	1.000000,	1.000000,	0.000000,	7.642857
2.025000,	0.253713,	1.000000,	1.000000,	0.000000,	7.642857
2.055000,	0.253713,	1.000000,	1.000000,	0.000000,	7.642857
2.085000,	0.253713,	1.000000,	1.000000,	0.000000,	7.642857
2.115000,	0.253713,	1.000000,	1.000000,	0.000000,	7.642857
2.145000,	0.253713,	1.000000,	1.000000,	0.000000,	7.642857
2.175000,	0.253713,	1.000000,	1.000000,	0.000000,	7.642857
2.205000,	0.253713,	1.000000,	1.000000,	0.000000,	7.642857
2.235000,	0.253713,	1.000000,	1.000000,	0.000000,	7.642857
2.265000,	0.253713,	1.000000,	1.000000,	0.000000,	7.642857
2.295000,	0.253713,	1.000000,	1.000000,	0.000000,	7.642857
2.325000,	0.253713,	1.000000,	1.000000,	0.000000,	7.642857
2.355000,	0.253713,	1.000000,	1.000000,	0.000000,	7.642857
2.385000,	0.253713,	1.000000,	1.000000,	0.000000,	7.642857
2.415000,	0.253713,	1.000000,	1.000000,	0.000000,	7.642857
2.445000,	0.253713,	1.000000,	1.000000,	0.000000,	7.642857
2.475000,	0.253713,	1.000000,	1.000000,	0.000000,	7.642857
2.505000,	0.253713,	1.000000,	1.000000,	0.000000,	7.642857
2.535000,	0.253713,	1.000000,	1.000000,	0.000000,	7.642857
2.565000,	0.253713,	1.000000,	1.000000,	0.000000,	7.642857
2.595000,	0.253713,	1.000000,	1.000000,	0.000000,	7.642857
2.625000,	0.253713,	1.000000,	1.000000,	0.000000,	7.642857
2.655000,	0.253713,	1.000000,	1.000000,	0.000000,	7.642857
2.685000,	0.253713,	1.000000,	1.000000,	0.000000,	7.642857
2.715000,	0.253713,	1.000000,	1.000000,	0.000000,	7.642857
2.745000,	0.253713,	1.000000,	1.000000,	0.000000,	7.642857
2.775000,	0.253713,	1.000000,	1.000000,	0.000000,	7.642857
2.805000,	0.253713,	1.000000,	1.000000,	0.000000,	7.642857
2.835000,	0.253713,	1.000000,	1.000000,	0.000000,	7.642857
2.865000,	0.253713,	1.000000,	1.000000,	0.000000,	7.642857
2.895000,	0.253713,	1.000000,	1.000000,	0.000000,	7.642857
2.925000,	0.253713,	1.000000,	1.000000,	0.000000,	7.642857
2.955000,	0.253713,	1.000000,	1.000000,	0.000000,	7.642857
2.985000,	0.253713,	1.000000,	1.000000,	0.000000,	7.642857
0.015000,	0.014852,	1.000000,	1.000000,	0.000000,	7.642857
0.045000,	0.014852,	1.000000,	1.000000,	0.000000,	7.642857
0.075000,	0.014852,	1.000000,	1.000000,	0.000000,	7.642857
0.105000,	0.014852,	1.000000,	1.000000,	0.000000,	7.642857
0.135000,	0.014852,	1.000000,	1.000000,	0.000000,	7.642857
0.165000,	0.014852,	1.000000,	1.000000,	0.000000,	7.642857
0.195000,	0.014852,	1.000000,	1.000000,	0.000000,	7.642857
0.225000,	0.014852,	1.000000,	1.000000,	0.000000,	7.642857
0.255000,	0.014852,	1.000000,	1.000000,	0.000000,	7.642857
0.285000,	0.014852,	1.000000,	1.000000,	0.000000,	7.642857
0.315000,	0.014852,	1.000000,	1.000000,	0.000000,	7.642857
0.345000,	0.014852,	1.000000,	1.000000,	0.000000,	7.642857
0.375000,	0.014852,	1.000000,	1.000000,	0.000000,	7.642857
0.405000,	0.014852,	1.000000,	1.000000,	0.000000,	7.642857
0.435000,	0.014852,	1.000000,	1.000000,	0.000000,	7.642857
0.465000,	0.014852,	1.000000,	1.000000,	0.000000,	7.642857
0.495000,	0.014852,	1.000000,	1.000000,	0.000000,	7.642857
0.525000,	0.014852,	1.000000,	1.000000,	0.000000,	7.642857
0.555000,	0.014852,	1.000000,	1.000000,	0.000000,	7.642857
0.585000,	0.014852,	1.000000,	1.000000,	0.000000,	7.642857
0.615000,	0.014852,	1.000000,	1.000000,	0.000000,	7.642857
0.645000,	0.014852,	1.000000,	1.000000,	0.000000,	7.642857
0.675000,	0.014852,	1.000000,	1.000000,	0.000000,	7.642857
0.705000,	0.014852,	1.000000,	1.000000,	0.000000,	7.642857
0.735000,	0.014852,	1.000000,	1.000000,	0.000000,	7.642857
0.765000,	0.014852,	1.000000,	1.000000,	0.000000,	7.642857
0.795000,	0.014852,	1.000000,	1.000000,	0.000000,	7.642857
0.825000,	0.014852,	1.000000,	1.000000,	0.000000,	7.642857
0.855000,	0.014852,	1.000000,	1.000000,	0.000000,	7.642857
0.885000,	0.014852,	1.000000,	1.000000,	0.000000,	7.642857
0.915000,	0.014852,	1.000000,	1.000000,	0.000000,	7.642857
0.945000,	0.014852,	1.000000,	1.000000,	0.000000,	7.642857
0.975000,	0.014852,	1.000000,	1.000000,	0.000000,	7.642857
1.005000,	0.017314,	1.000000,	1.000000,	0.000000,	7.642857
1.035000,	0.023471,	1.000000,	1.000000,	0.000000,	7.642857
1.065000,	0.030860,	1.000000,	1.000000,	0.000000,	7.642857
1.095000,	0.038249,	1.000000,	1.000000,	0.000000,	7.642857
1.125000,	0.045637,	1.000000,	1.000000,	0.000000,	7.642857
1.155000,	0.053026,	1.000000,	1.000000,	0.000000,	7.642857
1.185000,	0.060414,	1.000000,	1.000000,	0.000000,	7.642857
1.215000,	0.067803,	1.000000,	1.000000,	0.000000,	7.642857
1.245000,	0.075192,	1.000000,	1.000000,	0.000000,	7.642857
1.275000,	0.082580,	1.000000,	1.000000,	0.000000,	7.642857
1.305000,	0.089969,	1.000000,	1.000000,	0.000000,	7.642857
1.335000,	0.097358,	1.000000,	1.000000,	0.000000,	7.642857
1.365000,	0.104746,	1.000000,	1.000000,	0.000000,	7.642857
1.395000,	0.112135,	1.000000,	1.000000,	0.000000,	7.642857
1.425000,	0.119523,	1.000000,	1.000000,	0.000000,	7.642857
1.455000,	0.126912,	1.000000,	1.000000,	0.000000,	7.642857
1.485000,	0.134301,	1.000000,	1.000000,	0.000000,	7.642857
1.515000,	0.141689,	1.000000,	1.000000,	0.000000,	7.642857
1.545000,	0.149078,	1.000000,	1.000000,	0.000000,	7.642857
1.575000,	0.156467,	1.000000,	1.000000,	0.000000,	7.642857
1.605000,	0.163855,	1.000000,	1.000000,	0.000000,	7.642857
1.635000,	0.171244,	1.000000,	1.000000,	0.000000,	7.642857
1.665000,	0.178632,	1.000000,	1.000000,	0.000000,	7.642857
1.695000,	0.186021,	1.000000,	1.000000,	0.000000,	7.642857
1.725000,	0.193410,	1.000000,	1.000000,	0.000000,	7.642857
1.755000,	0.200798,	1.000000,	1.000000,	0.000000,	7.642857
1.785000,	0.208187,	1.000000,	1.000000,	0.000000,	7.642857
1.815000,	0.215576,	1.000000,	1.000000,	0.000000,	7.642857
1.845000,	0.222964,	1.000000,	1.000000,	0.000000,	7.642857
1.875000,	0.230353,	1.000000,	1.000000,	0.000000,	7.642857
1.905000,	0.237741,	1.000000,	1.000000,	0.000000,	7.642857
1.935000,	0.245130,	1.000000,	1.000000,	0.000000,	7.642857
1.965000,	0.252518,	1.000000,	1.000000,	0.000000,	7.642857
1.995000,	0.258675,	1.000000,	1.000000,	0.000000,	7.642857
2.025000,	0.261138,	1.000000,	1.000000,	0.000000,	7.642857
2.055000,	0.261138,	1.000000,	1.000000,	0.000000,	7.642857
2.085000,	0.261138,	1.000000,	1.000000,	0.000000,	7.642857
2.115000,	0.261138,	1.000000,	1.000000,	0.000000,	7.642857
2.145000,	0.261138,	1.000000,	1.000000,	0.000000,	7.642857
2.175000,	0.261138,	1.000000,	1.000000,	0.000000,	7.642857
2.205000,	0.261138,	1.000000,	1.000000,	0.000000,	7.642857
2.235000,	0.261138,	1.000000,	1.000000,	0.000000,	7.642857
2.265000,	0.261138,	1.000000,	1.000000,	0.000000,	7.642857
2.295000,	0.261138,	1.000000,	1.000000,	0.000000,	7.642857
2.325000,	0.261138,	1.000000,	1.000000,	0.000000,	7.642857
2.355000,	0.261138,	1.000000,	1.000000,	0.000000,	7.642857
2.385000,	0.261138,	1.000000,	1.000000,	0.000000,	7.642857
2.415000,	0.261138,	1.000000,	1.000000,	0.000000,	7.642857
2.445000,	0.261138,	1.000000,	1.000000,	0.000000,	7.642857
2.475000,	0.261138,	1.000000,	1.000000,	0.000000,	7.642857
2.505000,	0.261138,	1.000000,	1.000000,	0.000000,	7.642857
2.535000,	0.261138,	1.000000,	1.000000,	0.000000,	7.642857
2.565000,	0.261138,	1.000000,	1.000000,	0.000000,	7.642857
2.595000,	0.261138,	1.000000,	1.000000,	0.000000,	7.642857
2.625000,	0.261138,	1.000000,	1.000000,	0.000000,	7.642857
2.655000,	0.261138,	1.000000,	1.000000,	0.000000,	7.642857
2.685000,	0.261138,	1.000000,	1.000000,	0.000000,	7.642857
2.715000,	0.261138,	1.000000,	1.000000,	0.000000,	7.642857
2.745000,	0.261138,	1.000000,	1.000000,	0.000000,	7.642857
2.775000,	0.261138,	1.000000,	1.000000,	0.000000,	7.642857
2.805000,	0.261138,	1.000000,	1.000000,	0.000000,	7.642857
2.835000,	0.261138,	1.000000,	1.000000,	0.000000,	7.642857
2.865000,	0.261138,	1.000000,	1.000000,	0.000000,	7.642857
2.895000,	0.261138,	1.000000,	1.000000,	0.000000,	7.642857
2.925000,	0.261138,	1.000000,	1.000000,	0.000000,	7.642857
2.955000,	0.261138,	1.000000,	1.000000,	0.000000,	7.642857
2.985000,	0.261138,	1.000000,	1.000000,	0.000000,	7.642857
0.015000,	0.024753,	1.000000,	1.000000,	0.000000,	7.642857
0.045000,	0.024753,	1.000000,	1.000000,	0.000000,	7.642857
0.075000,	0.024753,	1.000000,	1.000000,	0.000000,	7.642857
0.105000,	0.024753,	1.000000,	1.000000,	0.000000,	7.642857
0.135000,	0.024753,	1.000000,	1.000000,	0.000000,	7.642857
0.165000,	0.024753,	1.000000,	1.000000,	0.000000,	7.642857
0.195000,	0.024753,	1.000000,	1.000000,	0.000000,	7.642857
0.225000,	0.024753,	1.000000,	1.000000,	0.000000,	7.642857
0.255000,	0.024753,	1.000000,	1.000000,	0.000000,	7.642857
0.285000,	0.024753,	1.000000,	1.000000,	0.000000,	7.642857
0.315000,	0.024753,	1.000000,	1.000000,	0.000000,	7.642857
0.345000,	0.024753,	1.000000,	1.000000,	0.000000,	7.642857
0.375000,	0.024753,	1.000000,	1.000000,	0.000000,	7.642857
0.405000,	0.024753,	1.000000,	1.000000,	0.000000,	7.642857
0.435000,	0.024753,	1.000000,	1.000000,	0.000000,	7.642857
0.465000,	0.024753,	1.000000,	1.000000,	0.000000,	7.642857
0.495000,	0.024753,	1.000000,	1.000000,	0.000000,	7.642857
0.525000,	0.024753,	1.000000,	1.000000,	0.000000,	7.642857
0.555000,	0.024753,	1.000000,	1.000000,	0.000000,	7.642857
0.585000,	0.024753,	1.000000,	1.000000,	0.000000,	7.642857
0.615000,	0.024753,	1.000000,	1.000000,	0.000000,	7.642857
0.645000,	0.024753,	1.000000,	1.000000,	0.000000,	7.642857
0.675000,	0.024753,	1.000000,	1.000000,	0.000000,	7.642857
0.705000,	0.024753,	1.000000,	1.000000,	0.000000,	7.642857
0.735000,	0.024753,	1.000000,	1.000000,	0.000000,	7.642857
0.765000,	0.024753,	1.000000,	1.000000,	0.000000,	7.642857
0.795000,	0.024753,	1.000000,	1.000000,	0.000000,	7.642857
0.825000,	0.024753,	1.000000,	1.000000,	0.000000,	7.642857
0.855000,	0.024753,	1.000000,	1.000000,	0.000000,	7.642857
0.885000,	0.024753,	1.000000,	1.000000,	0.000000,	7.642857
0.915000,	0.024753,	1.000000,	1.000000,	0.000000,	7.642857
0.945000,	0.024753,	1.000000,	1.000000,	0.000000,	7.642857
0.975000,	0.024753,	1.000000,	1.000000,	0.000000,	7.642857
1.005000,	0.027190,	1.000000,	1.000000,	0.000000,	7.642857
1.035000,	0.033286,	1.000000,	1.000000,	0.000000,	7.642857
1.065000,	0.040600,	1.000000,	1.000000,	0.000000,	7.642857
1.095000,	0.047914,	1.000000,	1.000000,	0.000000,	7.642857
1.125000,	0.055229,	1.000000,	1.000000,	0.000000,	7.642857
1.155000,	0.062543,	1.000000,	1.000000,	0.000000,	7.642857
1.185000,	0.069858,	1.000000,	1.000000,	0.000000,	7.642857
1.215000,	0.077172,	1.000000,	1.000000,	0.000000,	7.642857
1.245000,	0.084486,	1.000000,	1.000000,	0.000000,	7.642857
1.275000,	0.091801,	1.000000,	1.000000,	0.000000,	7.642857
1.305000,	0.099115,	1.000000,	1.000000,	0.000000,	7.642857
1.335000,	0.106429,	1.000000,	1.000000,	0.000000,	7.642857
1.365000,	0.113744,	1.000000,	1.000000,	0.000000,	7.642857
1.395000,	0.121058,	1.000000,	1.000000,	0.000000,	7.642857
1.425000,	0.128373,	1.000000,	1.000000,	0.000000,	7.642857
1.455000,	0.135687,	1.000000,	1.000000,	0.000000,	7.642857
1.485000,	0.143001,	1.000000,	1.000000,	0.000000,	7.642857
1.515000,	0.150315,	1.000000,	1.000000,	0.000000,	7.642857
1.545000,	0.157630,	1.000000,	1.000000,	0.000000,	7.642857
1.575000,	0.164944,	1.000000,	1.000000,	0.000000,	7.642857
1.605000,	0.172259,	1.000000,	1.000000,	0.000000,	7.642857
1.635000,	0.179573,	1.000000,	1.000000,	0.000000,	7.642857
1.665000,	0.186887,	1.000000,	1.000000,	0.000000,	7.642857
1.695000,	0.194202,	1.000000,	1.000000,	0.000000,	7.642857
1.725000,	0.201516,	1.000000,	1.000000,	0.000000,	7.642857
1.755000,	0.208831,	1.000000,	1.000000,	0.000000,	7.642857
1.785000,	0.216145,	1.000000,	1.000000,	0.000000,	7.642857
1.815000,	0.223459,	1.000000,	1.000000,	0.000000,	7.642857
1.845000,	0.230774,	1.000000,	1.000000,	0.000000,	7.642857
1.875000,	0.238088,	1.000000,	1.000000,	0.000000,	7.642857
1.905000,	0.245402,	1.000000,	1.000000,	0.000000,	7.642857
1.935000,	0.252717,	1.000000,	1.000000,	0.000000,	7.642857
1.965000,	0.260031,	1.000000,	1.000000,	0.000000,	7.642857
1.995000,	0.266126,	1.000000,	1.000000,	0.000000,	7.642857
2.025000,	0.268564,	1.000000,	1.000000,	0.000000,	7.642857
2.055000,	0.268564,	1.000000,	1.000000,	0.000000,	7.642857
2.085000,	0.268564,	1.000000,	1.000000,	0.000000,	7.642857
2.115000,	0.268564,	1.000000,	1.000000,	0.000000,	7.642857
2.145000,	0.268564,	1.000000,	1.000000,	0.000000,	7.642857
2.175000,	0.268564,	1.000000,	1.000000,	0.000000,	7.642857
2.205000,	0.268564,	1.000000,	1.000000,	0.000000,	7.642857
2.235000,	0.268564,	1.000000,	1.000000,	0.000000,	7.642857
2.265000,	0.268564,	1.000000,	1.000000,	0.000000,	7.642857
2.295000,	0.268564,	1.000000,	1.000000,	0.000000,	7.642857
2.325000,	0.268564,	1.000000,	1.000000,	0.000000,	7.642857
2.355000,	0.268564,	1.000000,	1.000000,	0.000000,	7.642857
2.385000,	0.268564,	1.000000,	1.000000,	0.000000,	7.642857
2.415000,	0.268564,	1.000000,	1.000000,	0.000000,	7.642857
2.445000,	0.268564,	1.000000,	1.000000,	0.000000,	7.642857
2.475000,	0.268564,	1.000000,	1.000000,	0.000000,	7.642857
2.505000,	0.268564,	1.000000,	1.000000,	0.000000,	7.642857
2.535000,	0.268564,	1.000000,	1.000000,	0.000000,	7.642857
2.565000,	0.268564,	1.000000,	1.000000,	0.000000,	7.642857
2.595000,	0.268564,	1.000000,	1.000000,	0.000000,	7.642857
2.625000,	0.268564,	1.000000,	1.000000,	0.000000,	7.642857
2.655000,	0.268564,	1.000000,	1.000000,	0.000000,	7.642857
2.685000,	0.268564,	1.000000,	1.000000,	0.000000,	7.642857
2.715000,	0.268564,	1.000000,	1.000000,	0.000000,	7.642857
2.745000,	0.268564,	1.000000,	1.000000,	0.000000,	7.642857
2.775000,	0.268564,	1.000000,	1.000000,	0.000000,	7.642857
2.805000,	0.268564,	1.000000,	1.000000,	0.000000,	7.642857
2.835000,	0.268564,	1.000000,	1.000000,	0.000000,	7.642857
2.865000,	0.268564,	1.000000,	1.000000,	0.000000,	7.642857
2.895000,	0.268564,	1.000000,	1.000000,	0.000000,	7.642857
2.925000,	0.268564,	1.000000,	1.000000,	0.000000,	7.642857
2.955000,	0.268564,	1.000000,	1.000000,	0.000000,	7.642857
2.985000,	0.268564,	1.000000,	1.000000,	0.000000,	7.642857
0.015000,	0.034654,	1.000000,	1.000000,	0.000000,	7.642857
0.045000,	0.034654,	1.000000,	1.000000,	0.000000,	7.642857
0.075000,	0.034654,	1.000000,	1.000000,	0.000000,	7.642857
0.105000,	0.034654,	1.000000,	1.000000,	0.000000,	7.642857
0.135000,	0.034654,	1.000000,	1.000000,	0.000000,	7.642857
0.165000,	0.034654,	1.000000,	1.000000,	0.000000,	7.642857
0.195000,	0.034654,	1.000000,	1.000000,	0.000000,	7.642857
0.225000,	0.034654,	1.000000,	1.000000,	0.000000,	7.642857
0.255000,	0.034654,	1.000000,	1.000000,	0.000000,	7.642857
0.285000,	0.034654,	1.000000,	1.000000,	0.000000,	7.642857
0.315000,	0.034654,	1.000000,	1.000000,	0.000000,	7.642857
0.345000,	0.034654,	1.000000,	1.000000,	0.000000,	7.642857
0.375000,	0.034654,	1.000000,	1.000000,	0.000000,	7.642857
0.405000,	0.034654,	1.000000,	1.000000,	0.000000,	7.642857
0.435000,	0.034654,	1.000000,	1.000000,	0.000000,	7.642857
0.465000,	0.034654,	1.000000,	1.000000,	0.000000,	7.642857
0.495000,	0.034654,	1.000000,	1.000000,	0.000000,	7.642857
0.525000,	0.034654,	1.000000,	1.000000,	0.000000,	7.642857
0.555000,	0.034654,	1.000000,	1.000000,	0.000000,	7.642857
0.585000,	0.034654,	1.000000,	1.000000,	0.000000,	7.642857
0.615000,	0.034654,	1.000000,	1.000000,	0.000000,	7.642857
0.645000,	0.034654,	1.000000,	1.000000,	0.000000,	7.642857
0.675000,	0.034654,	1.000000,	1.000000,	0.000000,	7.642857
0.705000,	0.034654,	1.000000,	1.000000,	0.000000,	7.642857
0.735000,	0.034654,	1.000000,	1.000000,	0.000000,	7.642857
0.765000,	0.034654,	1.000000,	1.000000,	0.000000,	7.642857
0.795000,	0.034654,	1.000000,	1.000000,	0.000000,	7.642857
0.825000,	0.034654,	1.000000,	1.000000,	0.000000,	7.642857
0.855000,	0.034654,	1.000000,	1.000000,	0.000000,	7.642857
0.885000,	0.034654,	1.000000,	1.000000,	0.000000,	7.642857
0.915000,	0.034654,	1.000000,	1.000000,	0.000000,	7.642857
0.945000,	0.034654,	1.000000,	1.000000,	0.000000,	7.642857
0.975000,	0.034654,	1.000000,	1.000000,	0.000000,	7.642857
1.005000,	0.037067,	1.000000,	1.000000,	0.000000,	7.642857
1.035000,	0.043100,	1.000000,	1.000000,	0.000000,	7.642857
1.065000,	0.050340,	1.000000,	1.000000,	0.000000,	7.642857
1.095000,	0.057580,	1.000000,	1.000000,	0.000000,	7.642857
1.125000,	0.064821,	1.000000,	1.000000,	0.000000,	7.642857
1.155000,	0.072061,	1.000000,	1.000000,	0.000000,	7.642857
1.185000,	0.079301,	1.000000,	1.000000,	0.000000,	7.642857
1.215000,	0.086541,	1.000000,	1.000000,	0.000000,	7.642857
1.245000,	0.093781,	1.000000,	1.000000,	0.000000,	7.642857
1.275000,	0.101021,	1.000000,	1.000000,	0.000000,	7.642857
1.305000,	0.108262,	1.000000,	1.000000,	0.000000,	7.642857
1.335000,	0.115501,	1.000000,	1.000000,	0.000000,	7.642857
1.365000,	0.122742,	1.000000,	1.000000,	0.000000,	7.642857
1.395000,	0.129981,	1.000000,	1.000000,	0.000000,	7.642857
1.425000,	0.137222,	1.000000,	1.000000,	0.000000,	7.642857
1.455000,	0.144462,	1.000000,	1.000000,	0.000000,	7.642857
1.485000,	0.151702,	1.000000,	1.000000,	0.000000,	7.642857
1.515000,	0.158942,	1.000000,	1.000000,	0.000000,	7.642857
1.545000,	0.166182,	1.000000,	1.000000,	0.000000,	7.642857
1.575000,	0.173422,	1.000000,	1.000000,	0.000000,	7.642857
1.605000,	0.180662,	1.000000,	1.000000,	0.000000,	7.642857
1.635000,	0.187902,	1.000000,	1.000000,	0.000000,	7.642857
1.665000,	0.195142,	1.000000,	1.000000,	0.000000,	7.642857
1.695000,	0.202382,	1.000000,	1.000000,	0.000000,	7.642857
1.725000,	0.209623,	1.000000,	1.000000,	0.000000,	7.642857
1.755000,	0.216863,	1.000000,	1.000000,	0.000000,	7.642857
1.785000,	0.224103,	1.000000,	1.000000,	0.000000,	7.642857
1.815000,	0.231343,	1.000000,	1.000000,	0.000000,	7.642857
1.845000,	0.238583,	1.000000,	1.000000,	0.000000,	7.642857
1.875000,	0.245823,	1.000000,	1.000000,	0.000000,	7.642857
1.905000,	0.253063,	1.000000,	1.000000,	0.000000,	7.642857
1.935000,	0.260303,	1.000000,	1.000000,	0.000000,	7.642857
1.965000,	0.267543,	1.000000,	1.000000,	0.000000,	7.642857
1.995000,	0.273577,	1.000000,	1.000000,	0.000000,	7.642857
2.025000,	0.275990,	1.000000,	1.000000,	0.000000,	7.642857
2.055000,	0.275990,	1.000000,	1.000000,	0.000000,	7.642857
2.085000,	0.275990,	1.000000,	1.000000,	0.000000,	7.642857
2.115000,	0.275990,	1.000000,	1.000000,	0.000000,	7.642857
2.145000,	0.275990,	1.000000,	1.000000,	0.000000,	7.642857
2.175000,	0.275990,	1.000000,	1.000000,	0.000000,	7.642857
2.205000,	0.275990,	1.000000,	1.000000,	0.000000,	7.642857
2.235000,	0.275990,	1.000000,	1.000000,	0.000000,	7.642857
2.265000,	0.275990,	1.000000,	1.000000,	0.000000,	7.642857
2.295000,	0.275990,	1.000000,	1.000000,	0.000000,	7.642857
2.325000,	0.275990,	1.000000,	1.000000,	0.000000,	7.642857
2.355000,	0.275990,	1.000000,	1.000000,	0.000000,	7.642857
2.385000,	0.275990,	1.000000,	1.000000,	0.000000,	7.642857
2.415000,	0.275990,	1.000000,	1.000000,	0.000000,	7.642857
2.445000,	0.275990,	1.000000,	1.000000,	0.000000,	7.642857
2.475000,	0.275990,	1.000000,	1.000000,	0.000000,	7.642857
2.505000,	0.275990,	1.000000,	1.000000,	0.000000,	7.642857
2.535000,	0.275990,	1.000000,	1.000000,	0.000000,	7.642857
2.565000,	0.275990,	1.000000,	1.000000,	0.000000,	7.642857
2.595000,	0.275990,	1.000000,	1.000000,	0.000000,	7.642857
2.625000,	0.275990,	1.000000,	1.000000,	0.000000,	7.642857
2.655000,	0.275990,	1.000000,	1.000000,	0.000000,	7.642857
2.685000,	0.275990,	1.000000,	1.000000,	0.000000,	7.642857
2.715000,	0.275990,	1.000000,	1.000000,	0.000000,	7.642857
2.745000,	0.275990,	1.000000,	1.000000,	0.000000,	7.642857
2.775000,	0.275990,	1.000000,	1.000000,	0.000000,	7.642857
2.805000,	0.275990,	1.000000,	1.000000,	0.000000,	7.642857
2.835000,	0.275990,	1.000000,	1.000000,	0.000000,	7.642857
2.865000,	0.275990,	1.000000,	1.000000,	0.000000,	7.642857
2.895000,	0.275990,	1.000000,	1.000000,	0.000000,	7.642857
2.925000,	0.275990,	1.000000,	1.000000,	0.000000,	7.642857
2.955000,	0.275990,	1.000000,	1.000000,	0.000000,	7.642857
2.985000,	0.275990,	1.000000,	1.000000,	0.000000,	7.642857
0.015000,	0.044554,	1.000000,	1.000000,	0.000000,	7.642857
0.045000,	0.044554,	1.000000,	1.000000,	0.000000,	7.642857
0.075000,	0.044554,	1.000000,	1.000000,	0.000000,	7.642857
0.105000,	0.044554,	1.000000,	1.000000,	0.000000,	7.642857
0.135000,	0.044554,	1.000000,	1.000000,	0.000000,	7.642857
0.165000,	0.044554,	1.000000,	1.000000,	0.000000,	7.642857
0.195000,	0.044554,	1.000000,	1.000000,	0.000000,	7.642857
0.225000,	0.044554,	1.000000,	1.000000,	0.000000,	7.642857
0.255000,	0.044554,	1.000000,	1.000000,	0.000000,	7.642857
0.285000,	0.044554,	1.000000,	1.000000,	0.000000,	7.642857
0.315000,	0.044554,	1.000000,	1.000000,	0.000000,	7.642857
0.345000,	0.044554,	1.000000,	1.000000,	0.000000,	7.642857
0.375000,	0.044554,	1.000000,	1.000000,	0.000000,	7.642857
0.405000,	0.044554,	1.000000,	1.000000,	0.000000,	7.642857
0.435000,	0.044554,	1.000000,	1.000000,	0.000000,	7.642857
0.465000,	0.044554,	1.000000,	1.000000,	0.000000,	7.642857
0.495000,	0.044554,	1.000000,	1.000000,	0.000000,	7.642857
0.525000,	0.044554,	1.000000,	1.000000,	0.000000,	7.642857
0.555000,	0.044554,	1.000000,	1.000000,	0.000000,	7.642857
0.585000,	0.044554,	1.000000,	1.000000,	0.000000,	7.642857
0.615000,	0.044554,	1.000000,	1.000000,	0.000000,	7.642857
0.645000,	0.044554,	1.000000,	1.000000,	0.000000,	7.642857
0.675000,	0.044554,	1.000000,	1.000000,	0.000000,	7.642857
0.705000,	0.044554,	1.000000,	1.000000,	0.000000,	7.642857
0.735000,	0.044554,	1.000000,	1.000000,	0.000000,	7.642857
0.765000,	0.044554,	1.000000,	1.000000,	0.000000,	7.642857
0.795000,	0.044554,	1.000000,	1.000000,	0.000000,	7.642857
0.825000,	0.044554,	1.000000,	1.000000,	0.000000,	7.642857
0.855000,	0.044554,	1.000000,	1.000000,	0.000000,	7.642857
0.885000,	0.044554,	1.000000,	1.000000,	0.000000,	7.642857
0.915000,	0.044554,	1.000000,	1.000000,	0.000000,	7.642857
0.945000,	0.044554,	1.000000,	1.000000,	0.000000,	7.642857
0.975000,	0.044554,	1.000000,	1.000000,	0.000000,	7.642857
1.005000,	0.046943,	1.000000,	1.000000,	0.000000,	7.642857
1.035000,	0.052915,	1.000000,	1.000000,	0.000000,	7.642857
1.065000,	0.060081,	1.000000,	1.000000,	0.000000,	7.642857
1.095000,	0.067247,	1.000000,	1.000000,	0.000000,	7.642857
1.125000,	0.074412,	1.000000,	1.000000,	0.000000,	7.642857
1.155000,	0.081578,	1.000000,	1.000000,	0.000000,	7.642857
1.185000,	0.088744,	1.000000,	1.000000,	0.000000,	7.642857
1.215000,	0.095910,	1.000000,	1.000000,	0.000000,	7.642857
1.245000,	0.103075,	1.000000,	1.000000,	0.000000,	7.642857
1.275000,	0.110241,	1.000000,	1.000000,	0.000000,	7.642857
1.305000,	0.117407,	1.000000,	1.000000,	0.000000,	7.642857
1.335000,	0.124573,	1.000000,	1.000000,	0.000000,	7.642857
1.365000,	0.131739,	1.000000,	1.000000,	0.000000,	7.642857
1.395000,	0.138905,	1.000000,	1.000000,	0.000000,	7.642857
1.425000,	0.146071,	1.000000,	1.000000,	0.000000,	7.642857
1.455000,	0.153236,	1.000000,	1.000000,	0.000000,	7.642857
1.485000,	0.160402,	1.000000,	1.000000,	0.000000,	7.642857
1.515000,	0.167568,	1.000000,	1.000000,	0.000000,	7.642857
1.545000,	0.174734,	1.000000,	1.000000,	0.000000,	7.642857
1.575000,	0.181899,	1.000000,	1.000000,	0.000000,	7.642857
1.605000,	0.189065,	1.000000,	1.000000,	0.000000,	7.642857
1.635000,	0.196231,	1.000000,	1.000000,	0.000000,	7.642857
1.665000,	0.203397,	1.000000,	1.000000,	0.000000,	7.642857
1.695000,	0.210563,	1.000000,	1.000000,	0.000000,	7.642857
1.725000,	0.217729,	1.000000,	1.000000,	0.000000,	7.642857
1.755000,	0.224895,	1.000000,	1.000000,	0.000000,	7.642857
1.785000,	0.232061,	1.000000,	1.000000,	0.000000,	7.642857
1.815000,	0.239227,	1.000000,	1.000000,	0.000000,	7.642857
1.845000,	0.246392,	1.000000,	1.000000,	0.000000,	7.642857
1.875000,	0.253558,	1.000000,	1.000000,	0.000000,	7.642857
1.905000,	0.260724,	1.000000,	1.000000,	0.000000,	7.642857
1.935000,	0.267890,	1.000000,	1.000000,	0.000000,	7.642857
1.965000,	0.275056,	1.000000,	1.000000,	0.000000,	7.642857
1.995000,	0.281027,	1.000000,	1.000000,	0.000000,	7.642857
2.025000,	0.283416,	1.000000,	1.000000,	0.000000,	7.642857
2.055000,	0.283416,	1.000000,	1.000000,	0.000000,	7.642857
2.085000,	0.283416,	1.000000,	1.000000,	0.000000,	7.642857
2.115000,	0.283416,	1.000000,	1.000000,	0.000000,	7.642857
2.145000,	0.283416,	1.000000,	1.000000,	0.000000,	7.642857
2.175000,	0.283416,	1.000000,	1.000000,	0.000000,	7.642857
2.205000,	0.283416,	1.000000,	1.000000,	0.000000,	7.642857
2.235000,	0.283416,	1.000000,	1.000000,	0.000000,	7.642857
2.265000,	0.283416,	1.000000,	1.000000,	0.000000,	7.642857
2.295000,	0.283416,	1.000000,	1.000000,	0.000000,	7.642857
2.325000,	0.283416,	1.000000,	1.000000,	0.000000,	7.642857
2.355000,	0.283416,	1.000000,	1.000000,	0.000000,	7.642857
2.385000,	0.283416,	1.000000,	1.000000,	0.000000,	7.642857
2.415000,	0.283416,	1.000000,	1.000000,	0.000000,	7.642857
2.445000,	0.283416,	1.000000,	1.000000,	0.000000,	7.642857
2.475000,	0.283416,	1.000000,	1.000000,	0.000000,	7.642857
2.505000,	0.283416,	1.000000,	1.000000,	0.000000,	7.642857
2.535000,	0.283416,	1.000000,	1.000000,	0.000000,	7.642857
2.565000,	0.283416,	1.000000,	1.000000,	0.000000,	7.642857
2.595000,	0.283416,	1.000000,	1.000000,	0.000000,	7.642857
2.625000,	0.283416,	1.000000,	1.000000,	0.000000,	7.642857
2.655000,	0.283416,	1.000000,	1.000000,	0.000000,	7.642857
2.685000,	0.283416,	1.000000,	1.000000,	0.000000,	7.642857
2.715000,	0.283416,	1.000000,	1.000000,	0.000000,	7.642857
2.745000,	0.283416,	1.000000,	1.000000,	0.000000,	7.642857
2.775000,	0.283416,	1.000000,	1.000000,	0.000000,	7.642857
2.805000,	0.283416,	1.000000,	1.000000,	0.000000,	7.642857
2.835000,	0.283416,	1.000000,	1.000000,	0.000000,	7.642857
2.865000,	0.283416,	1.000000,	1.000000,	0.000000,	7.642857
2.895000,	0.283416,	1.000000,	1.000000,	0.000000,	7.642857
2.925000,	0.283416,	1.000000,	1.000000,	0.000000,	7.642857
2.955000,	0.283416,	1.000000,	1.000000,	0.000000,	7.642857
2.985000,	0.283416,	1.000000,	1.000000,	0.000000,	7.642857
0.015000,	0.054456,	1.000000,	1.000000,	0.000000,	7.642857
0.045000,	0.054456,	1.000000,	1.000000,	0.000000,	7.642857
0.075000,	0.054456,	1.000000,	1.000000,	0.000000,	7.642857
0.105000,	0.054456,	1.000000,	1.000000,	0.000000,	7.642857
0.135000,	0.054456,	1.000000,	1.000000,	0.000000,	7.642857
0.165000,	0.054456,	1.000000,	1.000000,	0.000000,	7.642857