TITLE = "Final State"
VARIABLES = "X", "Y", "rho", "u", "v", "e", "p", "c", "M"
ZONE I=250, J=100, DATAPACKING=POINT
0.012000,	 0.007425,	 1.000000,	 1.000000,	 0.000000,	 0.946429,	 0.178571,	 0.500000,	 2.000000 
0.036000,	 0.007425,	 1.000000,	 1.000000,	 0.000000,	 0.946429,	 0.178571,	 0.500000,	 2.000000 
0.060000,	 0.007425,	 1.000000,	 1.000000,	 0.000000,	 0.946429,	 0.178571,	 0.500000,	 2.000000 
0.084000,	 0.007425,	 1.000000,	 1.000000,	 0.000000,	 0.946429,	 0.178571,	 0.500000,	 2.000000 
0.108000,	 0.007425,	 1.000000,	 1.000000,	 0.000000,	 0.946429,	 0.178571,	 0.500000,	 2.000000 
0.132000,	 0.007425,	 1.000000,	 1.000000,	 0.000000,	 0.946429,	 0.178571,	 0.500000,	 2.000000 
0.156000,	 0.007425,	 1.000000,	 1.000000,	 0.000000,	 0.946429,	 0.178571,	 0.500000,	 2.000000 
0.180000,	 0.007425,	 1.000000,	 1.000000,	 0.000000,	 0.946429,	 0.178571,	 0.500000,	 2.000000 
0.204000,	 0.007425,	 1.000000,	 1.000000,	 0.000000,	 0.946429,	 0.178571,	 0.500000,	 2.000000 
0.228000,	 0.007425,	 1.000000,	 1.000000,	 0.000000,	 0.946429,	 0.178571,	 0.500000,	 2.000000 
0.252000,	 0.007425,	 1.000000,	 1.000000,	 0.000000,	 0.946429,	 0.178571,	 0.500000,	 2.000000 
0.276000,	 0.007425,	 1.000000,	 1.000000,	 0.000000,	 0.946429,	 0.178571,	 0.500000,	 2.000000 
0.300000,	 0.007425,	 1.000000,	 1.000000,	 0.000000,	 0.946429,	 0.178571,	 0.500000,	 2.000000 
0.324000,	 0.007425,	 1.000000,	 1.000000,	 0.000000,	 0.946429,	 0.178571,	 0.500000,	 2.000000 
0.348000,	 0.007425,	 1.000000,	 1.000000,	 0.000000,	 0.946429,	 0.178571,	 0.500000,	 2.000000 
0.372000,	 0.007425,	 1.000000,	 1.000000,	 0.000000,	 0.946429,	 0.178571,	 0.500000,	 2.000000 
0.396000,	 0.007425,	 1.000000,	 1.000000,	 0.000000,	 0.946429,	 0.178571,	 0.500000,	 2.000000 
0.420000,	 0.007425,	 1.000000,	 1.000000,	 0.000000,	 0.946429,	 0.178571,	 0.500000,	 2.000000 
0.444000,	 0.007425,	 1.000000,	 1.000000,	 0.000000,	 0.946429,	 0.178571,	 0.500000,	 2.000000 
0.468000,	 0.007425,	 1.000000,	 1.000000,	 0.000000,	 0.946429,	 0.178571,	 0.500000,	 2.000000 
0.492000,	 0.007425,	 1.000000,	 1.000000,	 0.000000,	 0.946429,	 0.178571,	 0.500000,	 2.000000 
0.516000,	 0.007425,	 1.000000,	 1.000000,	 0.000000,	 0.946429,	 0.178571,	 0.500000,	 2.000000 
0.540000,	 0.007425,	 1.000000,	 1.000000,	 0.000000,	 0.946429,	 0.178571,	 0.500000,	 2.000000 
0.564000,	 0.007425,	 1.000000,	 1.000000,	 0.000000,	 0.946429,	 0.178571,	 0.500000,	 2.000000 
0.588000,	 0.007425,	 1.000000,	 1.000000,	 0.000000,	 0.946429,	 0.178571,	 0.500000,	 2.000000 
0.612000,	 0.007425,	 1.000000,	 1.000000,	 0.000000,	 0.946429,	 0.178571,	 0.500000,	 2.000000 
0.636000,	 0.007425,	 1.000000,	 1.000000,	 0.000000,	 0.946429,	 0.178571,	 0.500000,	 2.000000 
0.660000,	 0.007425,	 1.000000,	 1.000000,	 0.000000,	 0.946429,	 0.178571,	 0.500000,	 2.000000 
0.684000,	 0.007425,	 1.000000,	 1.000000,	 0.000000,	 0.946429,	 0.178571,	 0.500000,	 2.000000 
0.708000,	 0.007425,	 1.000000,	 1.000000,	 0.000000,	 0.946429,	 0.178571,	 0.500000,	 2.000000 
0.732000,	 0.007425,	 1.000000,	 1.000000,	 0.000000,	 0.946429,	 0.178571,	 0.500000,	 2.000000 
0.756000,	 0.007425,	 1.000000,	 1.000000,	 0.000000,	 0.946429,	 0.178571,	 0.500000,	 2.000000 
0.780000,	 0.007425,	 1.000000,	 1.000000,	 0.000000,	 0.946429,	 0.178571,	 0.500000,	 2.000000 
0.804000,	 0.007425,	 1.000000,	 1.000000,	 0.000000,	 0.946429,	 0.178571,	 0.500000,	 2.000000 
0.828000,	 0.007425,	 1.188895,	 0.822227,	 -0.054460,	 0.878553,	 0.256345,	 0.549420,	 1.499815 
0.852000,	 0.007425,	 2.177577,	 0.386646,	 -0.135913,	 0.807106,	 0.629861,	 0.636355,	 0.644040 
0.876000,	 0.007425,	 2.418060,	 0.283869,	 -0.169403,	 0.806776,	 0.727484,	 0.648996,	 0.509362 
0.900000,	 0.007425,	 2.513108,	 0.223550,	 -0.183164,	 0.806456,	 0.768704,	 0.654392,	 0.441638 
0.924000,	 0.007425,	 2.589964,	 0.169555,	 -0.188690,	 0.808775,	 0.804545,	 0.659466,	 0.384673 
0.948000,	 0.007425,	 2.636934,	 0.117458,	 -0.188094,	 0.813797,	 0.832437,	 0.664799,	 0.333569 
0.972000,	 0.007425,	 2.636179,	 0.059965,	 -0.164541,	 0.819654,	 0.848132,	 0.671133,	 0.260942 
0.996000,	 0.011406,	 3.022456,	 0.038642,	 -0.002197,	 0.839596,	 1.014151,	 0.685386,	 0.056471 
1.020000,	 0.027327,	 3.039231,	 0.073914,	 0.060086,	 0.841600,	 1.017611,	 0.684657,	 0.139129 
1.044000,	 0.051208,	 2.965307,	 0.111816,	 0.101237,	 0.839648,	 0.982432,	 0.681052,	 0.221476 
1.068000,	 0.075089,	 2.906240,	 0.142350,	 0.133490,	 0.839528,	 0.953812,	 0.677844,	 0.287896 
1.092000,	 0.098970,	 2.852106,	 0.169036,	 0.161155,	 0.840479,	 0.927741,	 0.674830,	 0.346083 
1.116000,	 0.122851,	 2.798897,	 0.193834,	 0.186457,	 0.842287,	 0.902496,	 0.671882,	 0.400304 
1.140000,	 0.146733,	 2.743928,	 0.218204,	 0.210937,	 0.844996,	 0.876896,	 0.668885,	 0.453728 
1.164000,	 0.170614,	 2.684336,	 0.243642,	 0.236037,	 0.848905,	 0.849719,	 0.665707,	 0.509574 
1.188000,	 0.194495,	 2.615696,	 0.272329,	 0.263663,	 0.854794,	 0.819187,	 0.662158,	 0.572451 
1.212000,	 0.218376,	 2.528346,	 0.308736,	 0.297353,	 0.864851,	 0.781747,	 0.657929,	 0.651507 
1.236000,	 0.242258,	 2.388081,	 0.366842,	 0.346540,	 0.888078,	 0.726690,	 0.652701,	 0.773158 
1.260000,	 0.255193,	 0.883174,	 0.837109,	 0.189311,	 0.930195,	 0.198502,	 0.560949,	 1.529992 
1.284000,	 0.256188,	 0.684316,	 0.906283,	 0.083646,	 0.940721,	 0.144130,	 0.543016,	 1.676072 
1.308000,	 0.256188,	 0.618163,	 0.932830,	 0.034275,	 0.944309,	 0.125768,	 0.533700,	 1.749033 
1.332000,	 0.256188,	 0.600431,	 0.940961,	 0.011968,	 0.944770,	 0.120565,	 0.530204,	 1.774857 
1.356000,	 0.256188,	 0.603474,	 0.940942,	 0.001989,	 0.944066,	 0.121027,	 0.529879,	 1.775774 
1.380000,	 0.256188,	 0.616140,	 0.937190,	 -0.002417,	 0.942914,	 0.124152,	 0.531130,	 1.764525 
1.404000,	 0.256188,	 0.633447,	 0.931631,	 -0.004286,	 0.941544,	 0.128607,	 0.533139,	 1.747463 
1.428000,	 0.256188,	 0.653058,	 0.925134,	 -0.004994,	 0.940029,	 0.133767,	 0.535505,	 1.727617 
1.452000,	 0.256188,	 0.673885,	 0.918093,	 -0.005180,	 0.938399,	 0.139343,	 0.538038,	 1.706398 
1.476000,	 0.256188,	 0.695465,	 0.910678,	 -0.005141,	 0.936664,	 0.145209,	 0.540658,	 1.684417 
1.500000,	 0.256188,	 0.717670,	 0.902938,	 -0.005021,	 0.934828,	 0.151332,	 0.543335,	 1.661870 
1.524000,	 0.256188,	 0.740566,	 0.894853,	 -0.004889,	 0.932883,	 0.157738,	 0.546072,	 1.638732 
1.548000,	 0.256188,	 0.764338,	 0.886356,	 -0.004774,	 0.930819,	 0.164484,	 0.548887,	 1.614846 
1.572000,	 0.256188,	 0.789250,	 0.877353,	 -0.004689,	 0.928619,	 0.171657,	 0.551807,	 1.589986 
1.596000,	 0.256188,	 0.815614,	 0.867735,	 -0.004635,	 0.926264,	 0.179360,	 0.554862,	 1.563897 
1.620000,	 0.256188,	 0.843761,	 0.857385,	 -0.004603,	 0.923735,	 0.187710,	 0.558082,	 1.536330 
1.644000,	 0.256188,	 0.874020,	 0.846194,	 -0.004583,	 0.921016,	 0.196824,	 0.561490,	 1.507073 
1.668000,	 0.256188,	 0.906680,	 0.834068,	 -0.004557,	 0.918097,	 0.206814,	 0.565103,	 1.475981 
1.692000,	 0.256188,	 0.941972,	 0.820946,	 -0.004510,	 0.914977,	 0.217780,	 0.568924,	 1.443001 
1.716000,	 0.256188,	 0.980032,	 0.806798,	 -0.004424,	 0.911662,	 0.229794,	 0.572946,	 1.408179 
1.740000,	 0.256188,	 1.020892,	 0.791638,	 -0.004286,	 0.908170,	 0.242897,	 0.577145,	 1.371665 
1.764000,	 0.256188,	 1.064473,	 0.775518,	 -0.004088,	 0.904527,	 0.257093,	 0.581490,	 1.333693 
1.788000,	 0.256188,	 1.110596,	 0.758520,	 -0.003827,	 0.900764,	 0.272354,	 0.585939,	 1.294553 
1.812000,	 0.256188,	 1.159014,	 0.740740,	 -0.003508,	 0.896914,	 0.288622,	 0.590452,	 1.254545 
1.836000,	 0.256188,	 1.209467,	 0.722270,	 -0.003140,	 0.893006,	 0.305833,	 0.594989,	 1.213933 
1.860000,	 0.256188,	 1.261755,	 0.703164,	 -0.002738,	 0.889063,	 0.323938,	 0.599525,	 1.172878 
1.884000,	 0.256188,	 1.315857,	 0.683395,	 -0.002312,	 0.885087,	 0.342949,	 0.604052,	 1.131357 
1.908000,	 0.256188,	 1.376451,	 0.660348,	 -0.001707,	 0.880417,	 0.364696,	 0.609045,	 1.084238 
1.932000,	 0.256188,	 1.534728,	 0.592765,	 0.000221,	 0.867086,	 0.424445,	 0.622242,	 0.952628 
1.956000,	 0.256188,	 1.650867,	 0.548552,	 0.000412,	 0.860658,	 0.468980,	 0.630646,	 0.869827 
1.980000,	 0.256188,	 1.689502,	 0.535347,	 0.000176,	 0.858738,	 0.483495,	 0.632966,	 0.845774 
2.004000,	 0.256188,	 1.712747,	 0.528368,	 -0.000035,	 0.857678,	 0.491964,	 0.634138,	 0.833207 
2.028000,	 0.256188,	 1.728031,	 0.524615,	 -0.000189,	 0.857062,	 0.497293,	 0.634738,	 0.826506 
2.052000,	 0.256188,	 1.738092,	 0.522934,	 -0.000297,	 0.856725,	 0.500567,	 0.634978,	 0.823547 
2.076000,	 0.256188,	 1.744467,	 0.522676,	 -0.000371,	 0.856580,	 0.502396,	 0.634974,	 0.823147 
2.100000,	 0.256188,	 1.748126,	 0.523434,	 -0.000420,	 0.856573,	 0.503167,	 0.634796,	 0.824571 
2.124000,	 0.256188,	 1.749721,	 0.524934,	 -0.000451,	 0.856667,	 0.503142,	 0.634490,	 0.827332 
2.148000,	 0.256188,	 1.749715,	 0.526986,	 -0.000470,	 0.856840,	 0.502506,	 0.634090,	 0.831090 
2.172000,	 0.256188,	 1.748448,	 0.529450,	 -0.000478,	 0.857073,	 0.501395,	 0.633618,	 0.835598 
2.196000,	 0.256188,	 1.746174,	 0.532227,	 -0.000480,	 0.857354,	 0.499910,	 0.633091,	 0.840680 
2.220000,	 0.256188,	 1.743080,	 0.535242,	 -0.000477,	 0.857674,	 0.498125,	 0.632520,	 0.846205 
2.244000,	 0.256188,	 1.739309,	 0.538441,	 -0.000470,	 0.858027,	 0.496098,	 0.631916,	 0.852077 
2.268000,	 0.256188,	 1.734969,	 0.541784,	 -0.000460,	 0.858406,	 0.493870,	 0.631284,	 0.858226 
2.292000,	 0.256188,	 1.730145,	 0.545239,	 -0.000448,	 0.858808,	 0.491476,	 0.630629,	 0.864596 
2.316000,	 0.256188,	 1.724904,	 0.548784,	 -0.000434,	 0.859231,	 0.488940,	 0.629955,	 0.871148 
2.340000,	 0.256188,	 1.719300,	 0.552399,	 -0.000420,	 0.859670,	 0.486285,	 0.629265,	 0.877848 
2.364000,	 0.256188,	 1.713375,	 0.556071,	 -0.000404,	 0.860126,	 0.483527,	 0.628562,	 0.884673 
2.388000,	 0.256188,	 1.707165,	 0.559789,	 -0.000388,	 0.860595,	 0.480678,	 0.627847,	 0.891602 
2.412000,	 0.256188,	 1.700700,	 0.563544,	 -0.000372,	 0.861077,	 0.477752,	 0.627121,	 0.898621 
2.436000,	 0.256188,	 1.694002,	 0.567328,	 -0.000355,	 0.861571,	 0.474754,	 0.626385,	 0.905718 
2.460000,	 0.256188,	 1.687095,	 0.571137,	 -0.000338,	 0.862076,	 0.471696,	 0.625641,	 0.912882 
2.484000,	 0.256188,	 1.679991,	 0.574966,	 -0.000320,	 0.862590,	 0.468582,	 0.624889,	 0.920108 
2.508000,	 0.256188,	 1.672711,	 0.578810,	 -0.000303,	 0.863115,	 0.465418,	 0.624130,	 0.927387 
2.532000,	 0.256188,	 1.665264,	 0.582668,	 -0.000285,	 0.863648,	 0.462208,	 0.623364,	 0.934717 
2.556000,	 0.256188,	 1.657659,	 0.586538,	 -0.000267,	 0.864190,	 0.458957,	 0.622590,	 0.942093 
2.580000,	 0.256188,	 1.649917,	 0.590414,	 -0.000249,	 0.864740,	 0.455671,	 0.621811,	 0.949507 
2.604000,	 0.256188,	 1.642026,	 0.594302,	 -0.000231,	 0.865299,	 0.452346,	 0.621025,	 0.956970 
2.628000,	 0.256188,	 1.634011,	 0.598195,	 -0.000213,	 0.865864,	 0.448991,	 0.620234,	 0.964467 
2.652000,	 0.256188,	 1.625876,	 0.602092,	 -0.000195,	 0.866438,	 0.445608,	 0.619436,	 0.972000 
2.676000,	 0.256188,	 1.617605,	 0.606002,	 -0.000177,	 0.867020,	 0.442189,	 0.618631,	 0.979585 
2.700000,	 0.256188,	 1.609199,	 0.609925,	 -0.000159,	 0.867611,	 0.438737,	 0.617819,	 0.987223 
2.724000,	 0.256188,	 1.600561,	 0.613905,	 -0.000142,	 0.868220,	 0.435212,	 0.616991,	 0.994999 
2.748000,	 0.256188,	 1.591686,	 0.617968,	 -0.000132,	 0.868860,	 0.431613,	 0.616144,	 1.002960 
2.772000,	 0.256188,	 1.583353,	 0.621797,	 -0.000118,	 0.869468,	 0.428235,	 0.615342,	 1.010490 
2.796000,	 0.256188,	 1.574954,	 0.625618,	 -0.000101,	 0.870081,	 0.424848,	 0.614535,	 1.018035 
2.820000,	 0.256188,	 1.566444,	 0.629450,	 -0.000083,	 0.870702,	 0.421435,	 0.613722,	 1.025628 
2.844000,	 0.256188,	 1.557849,	 0.633283,	 -0.000065,	 0.871328,	 0.418005,	 0.612903,	 1.033251 
2.868000,	 0.256188,	 1.549188,	 0.637111,	 -0.000047,	 0.871960,	 0.414566,	 0.612081,	 1.040895 
2.892000,	 0.256188,	 1.540471,	 0.640931,	 -0.000029,	 0.872596,	 0.411121,	 0.611254,	 1.048551 
2.916000,	 0.256188,	 1.531708,	 0.644741,	 -0.000011,	 0.873236,	 0.407674,	 0.610425,	 1.056216 
2.940000,	 0.256188,	 1.522906,	 0.648538,	 0.000007,	 0.873879,	 0.404227,	 0.609593,	 1.063887 
2.964000,	 0.256188,	 1.514072,	 0.652322,	 0.000025,	 0.874525,	 0.400783,	 0.608759,	 1.071560 
2.988000,	 0.256188,	 1.505211,	 0.656090,	 0.000043,	 0.875174,	 0.397343,	 0.607923,	 1.079233 
3.012000,	 0.256188,	 1.496329,	 0.659843,	 0.000060,	 0.875825,	 0.393911,	 0.607085,	 1.086904 
3.036000,	 0.256188,	 1.487432,	 0.663578,	 0.000078,	 0.876478,	 0.390487,	 0.606245,	 1.094570 
3.060000,	 0.256188,	 1.478524,	 0.667296,	 0.000095,	 0.877133,	 0.387072,	 0.605405,	 1.102231 
3.084000,	 0.256188,	 1.469611,	 0.670994,	 0.000112,	 0.877790,	 0.383670,	 0.604563,	 1.109883 
3.108000,	 0.256188,	 1.460696,	 0.674673,	 0.000129,	 0.878448,	 0.380281,	 0.603721,	 1.117524 
3.132000,	 0.256188,	 1.451785,	 0.678331,	 0.000146,	 0.879107,	 0.376907,	 0.602878,	 1.125154 
3.156000,	 0.256188,	 1.442882,	 0.681968,	 0.000163,	 0.879766,	 0.373548,	 0.602035,	 1.132770 
3.180000,	 0.256188,	 1.433991,	 0.685582,	 0.000179,	 0.880427,	 0.370208,	 0.601193,	 1.140371 
3.204000,	 0.256188,	 1.425116,	 0.689174,	 0.000195,	 0.881087,	 0.366886,	 0.600350,	 1.147953 
3.228000,	 0.256188,	 1.416262,	 0.692741,	 0.000211,	 0.881748,	 0.363584,	 0.599508,	 1.155516 
3.252000,	 0.256188,	 1.407434,	 0.696283,	 0.000227,	 0.882408,	 0.360305,	 0.598666,	 1.163057 
3.276000,	 0.256188,	 1.398635,	 0.699800,	 0.000242,	 0.883067,	 0.357048,	 0.597826,	 1.170574 
3.300000,	 0.256188,	 1.389872,	 0.703289,	 0.000257,	 0.883726,	 0.353816,	 0.596988,	 1.178063 
3.324000,	 0.256188,	 1.381150,	 0.706750,	 0.000272,	 0.884383,	 0.350611,	 0.596151,	 1.185521 
3.348000,	 0.256188,	 1.372476,	 0.710180,	 0.000286,	 0.885039,	 0.347435,	 0.595317,	 1.192944 
3.372000,	 0.256188,	 1.363859,	 0.713577,	 0.000299,	 0.885692,	 0.344290,	 0.594486,	 1.200326 
3.396000,	 0.256188,	 1.355308,	 0.716938,	 0.000312,	 0.886341,	 0.341180,	 0.593659,	 1.207659 
3.420000,	 0.256188,	 1.346836,	 0.720259,	 0.000324,	 0.886987,	 0.338110,	 0.592837,	 1.214935 
3.444000,	 0.256188,	 1.338461,	 0.723534,	 0.000335,	 0.887627,	 0.335084,	 0.592022,	 1.222140 
3.468000,	 0.256188,	 1.330204,	 0.726756,	 0.000345,	 0.888259,	 0.332110,	 0.591216,	 1.229257 
3.492000,	 0.256188,	 1.322096,	 0.729915,	 0.000352,	 0.888883,	 0.329199,	 0.590421,	 1.236262 
3.516000,	 0.256188,	 1.314177,	 0.732996,	 0.000357,	 0.889493,	 0.326363,	 0.589641,	 1.243122 
3.540000,	 0.256188,	 1.306501,	 0.735980,	 0.000358,	 0.890087,	 0.323622,	 0.588882,	 1.249793 
3.564000,	 0.256188,	 1.299143,	 0.738842,	 0.000355,	 0.890657,	 0.320999,	 0.588149,	 1.256214 
3.588000,	 0.256188,	 1.292204,	 0.741544,	 0.000344,	 0.891197,	 0.318530,	 0.587454,	 1.262302 
3.612000,	 0.256188,	 1.285822,	 0.744038,	 0.000325,	 0.891695,	 0.316260,	 0.586808,	 1.267941 
3.636000,	 0.256188,	 1.280180,	 0.746257,	 0.000293,	 0.892136,	 0.314251,	 0.586229,	 1.272979 
3.660000,	 0.256188,	 1.275527,	 0.748114,	 0.000245,	 0.892501,	 0.312588,	 0.585740,	 1.277211 
3.684000,	 0.256188,	 1.272187,	 0.749491,	 0.000176,	 0.892764,	 0.311378,	 0.585373,	 1.280365 
3.708000,	 0.256188,	 1.270580,	 0.750238,	 0.000079,	 0.892893,	 0.310766,	 0.585167,	 1.282092 
3.732000,	 0.256188,	 1.271238,	 0.750164,	 -0.000051,	 0.892845,	 0.310931,	 0.585171,	 1.281958 
3.756000,	 0.256188,	 1.274804,	 0.749039,	 -0.000218,	 0.892574,	 0.312094,	 0.585444,	 1.279438 
3.780000,	 0.256188,	 1.282019,	 0.746599,	 -0.000423,	 0.892023,	 0.314514,	 0.586053,	 1.273945 
3.804000,	 0.256188,	 1.293672,	 0.742565,	 -0.000659,	 0.891140,	 0.318470,	 0.587065,	 1.264878 
3.828000,	 0.256188,	 1.310495,	 0.736681,	 -0.000910,	 0.889880,	 0.324232,	 0.588538,	 1.251715 
3.852000,	 0.256188,	 1.333014,	 0.728769,	 -0.001148,	 0.888219,	 0.332009,	 0.590503,	 1.234151 
3.876000,	 0.256188,	 1.361351,	 0.718796,	 -0.001336,	 0.886170,	 0.341882,	 0.592948,	 1.212242 
3.900000,	 0.256188,	 1.395040,	 0.706942,	 -0.001437,	 0.883790,	 0.353730,	 0.595808,	 1.186530 
3.924000,	 0.256188,	 1.432908,	 0.693633,	 -0.001427,	 0.881184,	 0.367180,	 0.598955,	 1.158075 
3.948000,	 0.256188,	 1.473084,	 0.679534,	 -0.001305,	 0.878494,	 0.381593,	 0.602214,	 1.128395 
3.972000,	 0.256188,	 1.513142,	 0.665499,	 -0.001095,	 0.875884,	 0.396104,	 0.605381,	 1.099307 
3.996000,	 0.256188,	 1.550329,	 0.652497,	 -0.000841,	 0.873524,	 0.409689,	 0.608246,	 1.072753 
4.020000,	 0.256188,	 1.581830,	 0.641527,	 -0.000591,	 0.871574,	 0.421270,	 0.610610,	 1.050633 
4.044000,	 0.256188,	 1.605199,	 0.633473,	 -0.000383,	 0.870162,	 0.429884,	 0.612315,	 1.034554 
4.068000,	 0.256188,	 1.619188,	 0.628795,	 -0.000236,	 0.869348,	 0.435015,	 0.613292,	 1.025279 
4.092000,	 0.256188,	 1.624719,	 0.627171,	 -0.000145,	 0.869061,	 0.436977,	 0.613627,	 1.022072 
4.116000,	 0.256188,	 1.624527,	 0.627610,	 -0.000093,	 0.869128,	 0.436790,	 0.613532,	 1.022947 
4.140000,	 0.256188,	 1.621345,	 0.629122,	 -0.000064,	 0.869378,	 0.435481,	 0.613212,	 1.025945 
4.164000,	 0.256188,	 1.616834,	 0.631101,	 -0.000046,	 0.869709,	 0.433677,	 0.612794,	 1.029876 
4.188000,	 0.256188,	 1.611792,	 0.633261,	 -0.000035,	 0.870072,	 0.431678,	 0.612336,	 1.034173 
4.212000,	 0.256188,	 1.606574,	 0.635473,	 -0.000026,	 0.870445,	 0.429619,	 0.611864,	 1.038584 
4.236000,	 0.256188,	 1.601336,	 0.637681,	 -0.000019,	 0.870819,	 0.427557,	 0.611392,	 1.042999 
4.260000,	 0.256188,	 1.596148,	 0.639862,	 -0.000013,	 0.871189,	 0.425519,	 0.610924,	 1.047368 
4.284000,	 0.256188,	 1.591036,	 0.642006,	 -0.000008,	 0.871555,	 0.423514,	 0.610461,	 1.051674 
4.308000,	 0.256188,	 1.586008,	 0.644111,	 -0.000004,	 0.871915,	 0.421546,	 0.610005,	 1.055911 
4.332000,	 0.256188,	 1.581065,	 0.646178,	 0.000000,	 0.872270,	 0.419613,	 0.609556,	 1.060080 
4.356000,	 0.256188,	 1.576200,	 0.648209,	 0.000004,	 0.872620,	 0.417714,	 0.609113,	 1.064185 
4.380000,	 0.256188,	 1.571407,	 0.650207,	 0.000008,	 0.872966,	 0.415846,	 0.608675,	 1.068232 
4.404000,	 0.256188,	 1.566678,	 0.652174,	 0.000012,	 0.873308,	 0.414006,	 0.608243,	 1.072226 
4.428000,	 0.256188,	 1.562007,	 0.654114,	 0.000016,	 0.873646,	 0.412191,	 0.607815,	 1.076173 
4.452000,	 0.256188,	 1.557386,	 0.656030,	 0.000020,	 0.873981,	 0.410398,	 0.607391,	 1.080078 
4.476000,	 0.256188,	 1.552809,	 0.657923,	 0.000023,	 0.874314,	 0.408626,	 0.606971,	 1.083945 
4.500000,	 0.256188,	 1.548271,	 0.659797,	 0.000027,	 0.874644,	 0.406872,	 0.606554,	 1.087779 
4.524000,	 0.256188,	 1.543767,	 0.661652,	 0.000030,	 0.874972,	 0.405134,	 0.606139,	 1.091584 
4.548000,	 0.256188,	 1.539292,	 0.663491,	 0.000034,	 0.875299,	 0.403411,	 0.605727,	 1.095363 
4.572000,	 0.256188,	 1.534843,	 0.665316,	 0.000038,	 0.875624,	 0.401700,	 0.605317,	 1.099119 
4.596000,	 0.256188,	 1.530415,	 0.667127,	 0.000041,	 0.875948,	 0.400001,	 0.604909,	 1.102855 
4.620000,	 0.256188,	 1.526006,	 0.668926,	 0.000045,	 0.876271,	 0.398312,	 0.604502,	 1.106574 
4.644000,	 0.256188,	 1.521613,	 0.670714,	 0.000049,	 0.876593,	 0.396633,	 0.604096,	 1.110277 
4.668000,	 0.256188,	 1.517233,	 0.672492,	 0.000052,	 0.876915,	 0.394961,	 0.603692,	 1.113966 
4.692000,	 0.256188,	 1.512865,	 0.674262,	 0.000056,	 0.877236,	 0.393298,	 0.603288,	 1.117645 
4.716000,	 0.256188,	 1.508506,	 0.676023,	 0.000060,	 0.877557,	 0.391641,	 0.602885,	 1.121313 
4.740000,	 0.256188,	 1.504155,	 0.677776,	 0.000063,	 0.877878,	 0.389990,	 0.602483,	 1.124973 
4.764000,	 0.256188,	 1.499810,	 0.679523,	 0.000067,	 0.878199,	 0.388345,	 0.602080,	 1.128625 
4.788000,	 0.256188,	 1.495470,	 0.681264,	 0.000071,	 0.878519,	 0.386704,	 0.601679,	 1.132271 
4.812000,	 0.256188,	 1.491134,	 0.682998,	 0.000074,	 0.878840,	 0.385068,	 0.601277,	 1.135913 
4.836000,	 0.256188,	 1.486800,	 0.684728,	 0.000078,	 0.879161,	 0.383437,	 0.600876,	 1.139550 
4.860000,	 0.256188,	 1.482468,	 0.686452,	 0.000082,	 0.879482,	 0.381809,	 0.600474,	 1.143184 
4.884000,	 0.256188,	 1.478137,	 0.688172,	 0.000086,	 0.879803,	 0.380184,	 0.600073,	 1.146815 
4.908000,	 0.256188,	 1.473806,	 0.689888,	 0.000089,	 0.880125,	 0.378563,	 0.599671,	 1.150445 
4.932000,	 0.256188,	 1.469476,	 0.691600,	 0.000093,	 0.880447,	 0.376945,	 0.599269,	 1.154072 
4.956000,	 0.256188,	 1.465145,	 0.693308,	 0.000097,	 0.880770,	 0.375330,	 0.598867,	 1.157699 
4.980000,	 0.256188,	 1.460815,	 0.695012,	 0.000101,	 0.881092,	 0.373718,	 0.598465,	 1.161324 
5.004000,	 0.256188,	 1.456484,	 0.696712,	 0.000104,	 0.881415,	 0.372109,	 0.598062,	 1.164949 
5.028000,	 0.256188,	 1.452153,	 0.698409,	 0.000108,	 0.881739,	 0.370503,	 0.597660,	 1.168573 
5.052000,	 0.256188,	 1.447822,	 0.700101,	 0.000112,	 0.882063,	 0.368900,	 0.597257,	 1.172195 
5.076000,	 0.256188,	 1.443493,	 0.701790,	 0.000115,	 0.882387,	 0.367301,	 0.596853,	 1.175817 
5.100000,	 0.256188,	 1.439166,	 0.703475,	 0.000119,	 0.882712,	 0.365705,	 0.596450,	 1.179437 
5.124000,	 0.256188,	 1.434841,	 0.705155,	 0.000123,	 0.883036,	 0.364113,	 0.596047,	 1.183054 
5.148000,	 0.256188,	 1.430522,	 0.706831,	 0.000126,	 0.883361,	 0.362526,	 0.595644,	 1.186667 
5.172000,	 0.256188,	 1.426208,	 0.708501,	 0.000130,	 0.883686,	 0.360944,	 0.595241,	 1.190276 
5.196000,	 0.256188,	 1.421904,	 0.710164,	 0.000133,	 0.884010,	 0.359368,	 0.594838,	 1.193878 
5.220000,	 0.256188,	 1.417611,	 0.711821,	 0.000136,	 0.884335,	 0.357799,	 0.594436,	 1.197473 
5.244000,	 0.256188,	 1.413333,	 0.713470,	 0.000139,	 0.884658,	 0.356238,	 0.594035,	 1.201056 
5.268000,	 0.256188,	 1.409074,	 0.715109,	 0.000142,	 0.884981,	 0.354687,	 0.593635,	 1.204626 
5.292000,	 0.256188,	 1.404839,	 0.716736,	 0.000144,	 0.885303,	 0.353147,	 0.593237,	 1.208178 
5.316000,	 0.256188,	 1.400635,	 0.718351,	 0.000147,	 0.885623,	 0.351621,	 0.592842,	 1.211708 
5.340000,	 0.256188,	 1.396469,	 0.719950,	 0.000148,	 0.885942,	 0.350110,	 0.592449,	 1.215211 
5.364000,	 0.256188,	 1.392349,	 0.721530,	 0.000149,	 0.886257,	 0.348619,	 0.592059,	 1.218679 
5.388000,	 0.256188,	 1.388287,	 0.723089,	 0.000150,	 0.886569,	 0.347150,	 0.591675,	 1.222106 
5.412000,	 0.256188,	 1.384293,	 0.724622,	 0.000150,	 0.886878,	 0.345708,	 0.591295,	 1.225482 
5.436000,	 0.256188,	 1.380382,	 0.726124,	 0.000149,	 0.887181,	 0.344296,	 0.590923,	 1.228797 
5.460000,	 0.256188,	 1.376567,	 0.727591,	 0.000147,	 0.887479,	 0.342921,	 0.590558,	 1.232040 
5.484000,	 0.256188,	 1.372863,	 0.729019,	 0.000144,	 0.887769,	 0.341588,	 0.590203,	 1.235201 
5.508000,	 0.256188,	 1.369287,	 0.730402,	 0.000139,	 0.888053,	 0.340300,	 0.589858,	 1.238267 
5.532000,	 0.256188,	 1.365850,	 0.731737,	 0.000134,	 0.888328,	 0.339063,	 0.589526,	 1.241229 
5.556000,	 0.256188,	 1.362564,	 0.733019,	 0.000128,	 0.888594,	 0.337881,	 0.589206,	 1.244079 
5.580000,	 0.256188,	 1.359434,	 0.734248,	 0.000120,	 0.888851,	 0.336754,	 0.588899,	 1.246814 
5.604000,	 0.256188,	 1.356458,	 0.735425,	 0.000112,	 0.889099,	 0.335682,	 0.588606,	 1.249435 
5.628000,	 0.256188,	 1.353625,	 0.736555,	 0.000104,	 0.889340,	 0.334661,	 0.588325,	 1.251952 
5.652000,	 0.256188,	 1.350914,	 0.737646,	 0.000097,	 0.889576,	 0.333684,	 0.588055,	 1.254382 
5.676000,	 0.256188,	 1.348289,	 0.738709,	 0.000091,	 0.889809,	 0.332738,	 0.587792,	 1.256753 
5.700000,	 0.256188,	 1.345704,	 0.739763,	 0.000086,	 0.890043,	 0.331807,	 0.587532,	 1.259102 
5.724000,	 0.256188,	 1.343099,	 0.740828,	 0.000085,	 0.890283,	 0.330869,	 0.587271,	 1.261477 
5.748000,	 0.256188,	 1.340404,	 0.741929,	 0.000087,	 0.890533,	 0.329902,	 0.587001,	 1.263931 
5.772000,	 0.256188,	 1.337541,	 0.743092,	 0.000094,	 0.890800,	 0.328879,	 0.586716,	 1.266526 
5.796000,	 0.256188,	 1.334431,	 0.744344,	 0.000105,	 0.891089,	 0.327771,	 0.586410,	 1.269324 
5.820000,	 0.256188,	 1.330992,	 0.745714,	 0.000122,	 0.891406,	 0.326552,	 0.586074,	 1.272388 
5.844000,	 0.256188,	 1.327150,	 0.747225,	 0.000144,	 0.891756,	 0.325196,	 0.585702,	 1.275777 
5.868000,	 0.256188,	 1.322841,	 0.748900,	 0.000171,	 0.892144,	 0.323682,	 0.585288,	 1.279540 
5.892000,	 0.256188,	 1.318010,	 0.750755,	 0.000202,	 0.892572,	 0.321993,	 0.584828,	 1.283720 
5.916000,	 0.256188,	 1.312621,	 0.752802,	 0.000239,	 0.893044,	 0.320116,	 0.584316,	 1.288348 
5.940000,	 0.256188,	 1.306651,	 0.755049,	 0.000278,	 0.893561,	 0.318045,	 0.583752,	 1.293441 
5.964000,	 0.256188,	 1.300091,	 0.757496,	 0.000322,	 0.894122,	 0.315778,	 0.583133,	 1.299009 
5.988000,	 0.256188,	 1.292949,	 0.760140,	 0.000367,	 0.894728,	 0.313319,	 0.582461,	 1.305049 
0.012000,	 0.022277,	 1.000000,	 1.000000,	 0.000000,	 0.946429,	 0.178571,	 0.500000,	 2.000000 
0.036000,	 0.022277,	 1.000000,	 1.000000,	 0.000000,	 0.946429,	 0.178571,	 0.500000,	 2.000000 
0.060000,	 0.022277,	 1.000000,	 1.000000,	 0.000000,	 0.946429,	 0.178571,	 0.500000,	 2.000000 
0.084000,	 0.022277,	 1.000000,	 1.000000,	 0.000000,	 0.946429,	 0.178571,	 0.500000,	 2.000000 
0.108000,	 0.022277,	 1.000000,	 1.000000,	 0.000000,	 0.946429,	 0.178571,	 0.500000,	 2.000000 
0.132000,	 0.022277,	 1.000000,	 1.000000,	 0.000000,	 0.946429,	 0.178571,	 0.500000,	 2.000000 
0.156000,	 0.022277,	 1.000000,	 1.000000,	 0.000000,	 0.946429,	 0.178571,	 0.500000,	 2.000000 
0.180000,	 0.022277,	 1.000000,	 1.000000,	 0.000000,	 0.946429,	 0.178571,	 0.500000,	 2.000000 
0.204000,	 0.022277,	 1.000000,	 1.000000,	 0.000000,	 0.946429,	 0.178571,	 0.500000,	 2.000000 
0.228000,	 0.022277,	 1.000000,	 1.000000,	 0.000000,	 0.946429,	 0.178571,	 0.500000,	 2.000000 
0.252000,	 0.022277,	 1.000000,	 1.000000,	 0.000000,	 0.946429,	 0.178571,	 0.500000,	 2.000000 
0.276000,	 0.022277,	 1.000000,	 1.000000,	 0.000000,	 0.946429,	 0.178571,	 0.500000,	 2.000000 
0.300000,	 0.022277,	 1.000000,	 1.000000,	 0.000000,	 0.946429,	 0.178571,	 0.500000,	 2.000000 
0.324000,	 0.022277,	 1.000000,	 1.000000,	 0.000000,	 0.946429,	 0.178571,	 0.500000,	 2.000000 
0.348000,	 0.022277,	 1.000000,	 1.000000,	 0.000000,	 0.946429,	 0.178571,	 0.500000,	 2.000000 
0.372000,	 0.022277,	 1.000000,	 1.000000,	 0.000000,	 0.946429,	 0.178571,	 0.500000,	 2.000000 
0.396000,	 0.022277,	 1.000000,	 1.000000,	 0.000000,	 0.946429,	 0.178571,	 0.500000,	 2.000000 
0.420000,	 0.022277,	 1.000000,	 1.000000,	 0.000000,	 0.946429,	 0.178571,	 0.500000,	 2.000000 
0.444000,	 0.022277,	 1.000000,	 1.000000,	 0.000000,	 0.946429,	 0.178571,	 0.500000,	 2.000000 
0.468000,	 0.022277,	 1.000000,	 1.000000,	 0.000000,	 0.946429,	 0.178571,	 0.500000,	 2.000000 
0.492000,	 0.022277,	 1.000000,	 1.000000,	 0.000000,	 0.946429,	 0.178571,	 0.500000,	 2.000000 
0.516000,	 0.022277,	 1.000000,	 1.000000,	 0.000000,	 0.946429,	 0.178571,	 0.500000,	 2.000000 
0.540000,	 0.022277,	 1.000000,	 1.000000,	 0.000000,	 0.946429,	 0.178571,	 0.500000,	 2.000000 
0.564000,	 0.022277,	 1.000000,	 1.000000,	 0.000000,	 0.946429,	 0.178571,	 0.500000,	 2.000000 
0.588000,	 0.022277,	 1.000000,	 1.000000,	 0.000000,	 0.946429,	 0.178571,	 0.500000,	 2.000000 
0.612000,	 0.022277,	 1.000000,	 1.000000,	 0.000000,	 0.946429,	 0.178571,	 0.500000,	 2.000000 
0.636000,	 0.022277,	 1.000000,	 1.000000,	 0.000000,	 0.946429,	 0.178571,	 0.500000,	 2.000000 
0.660000,	 0.022277,	 1.000000,	 1.000000,	 0.000000,	 0.946429,	 0.178571,	 0.500000,	 2.000000 
0.684000,	 0.022277,	 1.000000,	 1.000000,	 0.000000,	 0.946429,	 0.178571,	 0.500000,	 2.000000 
0.708000,	 0.022277,	 1.000000,	 1.000000,	 0.000000,	 0.946429,	 0.178571,	 0.500000,	 2.000000 
0.732000,	 0.022277,	 1.000000,	 1.000000,	 0.000000,	 0.946429,	 0.178571,	 0.500000,	 2.000000 
0.756000,	 0.022277,	 1.000000,	 1.000000,	 0.000000,	 0.946429,	 0.178571,	 0.500000,	 2.000000 
0.780000,	 0.022277,	 1.000000,	 1.000000,	 0.000000,	 0.946429,	 0.178571,	 0.500000,	 2.000000 
0.804000,	 0.022277,	 1.000000,	 1.000000,	 0.000000,	 0.946429,	 0.178571,	 0.500000,	 2.000000 
0.828000,	 0.022277,	 1.234626,	 0.831098,	 -0.034221,	 0.886050,	 0.266730,	 0.549961,	 1.512473 
0.852000,	 0.022277,	 2.284825,	 0.413011,	 -0.097097,	 0.815600,	 0.663145,	 0.637444,	 0.665583 
0.876000,	 0.022277,	 2.502977,	 0.322343,	 -0.129999,	 0.814506,	 0.755002,	 0.649845,	 0.534850 
0.900000,	 0.022277,	 2.581232,	 0.264442,	 -0.146213,	 0.812983,	 0.792261,	 0.655518,	 0.460966 
0.924000,	 0.022277,	 2.651077,	 0.208121,	 -0.152732,	 0.813478,	 0.827303,	 0.660975,	 0.390560 
0.948000,	 0.022277,	 2.702619,	 0.152532,	 -0.150306,	 0.816178,	 0.857540,	 0.666498,	 0.321299 
0.972000,	 0.022277,	 2.737754,	 0.096099,	 -0.123189,	 0.820198,	 0.884834,	 0.672663,	 0.232270 
0.996000,	 0.026218,	 3.003799,	 0.067703,	 -0.006694,	 0.834998,	 1.000485,	 0.682864,	 0.099629 
1.020000,	 0.041980,	 3.034720,	 0.091416,	 0.054848,	 0.839100,	 1.011675,	 0.683164,	 0.156050 
1.044000,	 0.065624,	 2.958813,	 0.124662,	 0.096600,	 0.837754,	 0.976784,	 0.679837,	 0.231981 
1.068000,	 0.089267,	 2.897564,	 0.152615,	 0.129328,	 0.837897,	 0.947953,	 0.676770,	 0.295584 
1.092000,	 0.112911,	 2.841615,	 0.177785,	 0.157302,	 0.838986,	 0.921604,	 0.673835,	 0.352290 
1.116000,	 0.136554,	 2.786665,	 0.201735,	 0.182779,	 0.840869,	 0.895986,	 0.670923,	 0.405744 
1.140000,	 0.160198,	 2.729657,	 0.225765,	 0.207288,	 0.843606,	 0.869818,	 0.667920,	 0.458878 
1.164000,	 0.183842,	 2.667225,	 0.251365,	 0.232208,	 0.847487,	 0.841706,	 0.664683,	 0.514841 
1.188000,	 0.207485,	 2.594011,	 0.280853,	 0.259230,	 0.853227,	 0.809526,	 0.660988,	 0.578228 
1.212000,	 0.231129,	 2.498222,	 0.319049,	 0.291113,	 0.862707,	 0.768890,	 0.656418,	 0.657967 
1.236000,	 0.254772,	 2.340229,	 0.380139,	 0.333612,	 0.882773,	 0.706629,	 0.650176,	 0.777897 
1.260000,	 0.267579,	 1.036063,	 0.803435,	 0.234351,	 0.924706,	 0.238084,	 0.567199,	 1.475524 