TITLE = "Final State"
VARIABLES = "X", "Y", "rho", "u", "v", "e", "p", "c", "M"
ZONE I=250, J=100, DATAPACKING=POINT
0.012000,	 0.007425,	 1.000000,	 1.000000,	 0.000000,	 0.698413,	 0.079365,	 0.333333,	 3.000000 
0.036000,	 0.007425,	 1.000000,	 1.000000,	 0.000000,	 0.698413,	 0.079365,	 0.333333,	 3.000000 
0.060000,	 0.007425,	 1.000000,	 1.000000,	 0.000000,	 0.698413,	 0.079365,	 0.333333,	 3.000000 
0.084000,	 0.007425,	 1.000000,	 1.000000,	 0.000000,	 0.698413,	 0.079365,	 0.333333,	 3.000000 
0.108000,	 0.007425,	 1.000000,	 1.000000,	 0.000000,	 0.698413,	 0.079365,	 0.333333,	 3.000000 
0.132000,	 0.007425,	 1.000000,	 1.000000,	 0.000000,	 0.698413,	 0.079365,	 0.333333,	 3.000000 
0.156000,	 0.007425,	 1.000000,	 1.000000,	 0.000000,	 0.698413,	 0.079365,	 0.333333,	 3.000000 
0.180000,	 0.007425,	 1.000000,	 1.000000,	 0.000000,	 0.698413,	 0.079365,	 0.333333,	 3.000000 
0.204000,	 0.007425,	 1.000000,	 1.000000,	 0.000000,	 0.698413,	 0.079365,	 0.333333,	 3.000000 
0.228000,	 0.007425,	 1.000000,	 1.000000,	 0.000000,	 0.698413,	 0.079365,	 0.333333,	 3.000000 
0.252000,	 0.007425,	 1.000000,	 1.000000,	 0.000000,	 0.698413,	 0.079365,	 0.333333,	 3.000000 
0.276000,	 0.007425,	 1.000000,	 1.000000,	 0.000000,	 0.698413,	 0.079365,	 0.333333,	 3.000000 
0.300000,	 0.007425,	 1.000000,	 1.000000,	 0.000000,	 0.698413,	 0.079365,	 0.333333,	 3.000000 
0.324000,	 0.007425,	 1.000000,	 1.000000,	 0.000000,	 0.698413,	 0.079365,	 0.333333,	 3.000000 
0.348000,	 0.007425,	 1.000000,	 1.000000,	 0.000000,	 0.698413,	 0.079365,	 0.333333,	 3.000000 
0.372000,	 0.007425,	 1.000000,	 1.000000,	 0.000000,	 0.698413,	 0.079365,	 0.333333,	 3.000000 
0.396000,	 0.007425,	 1.000000,	 1.000000,	 0.000000,	 0.698413,	 0.079365,	 0.333333,	 3.000000 
0.420000,	 0.007425,	 1.000000,	 1.000000,	 0.000000,	 0.698413,	 0.079365,	 0.333333,	 3.000000 
0.444000,	 0.007425,	 1.000000,	 1.000000,	 0.000000,	 0.698413,	 0.079365,	 0.333333,	 3.000000 
0.468000,	 0.007425,	 1.000000,	 1.000000,	 0.000000,	 0.698413,	 0.079365,	 0.333333,	 3.000000 
0.492000,	 0.007425,	 1.000000,	 1.000000,	 0.000000,	 0.698413,	 0.079365,	 0.333333,	 3.000000 
0.516000,	 0.007425,	 1.000000,	 1.000000,	 0.000000,	 0.698413,	 0.079365,	 0.333333,	 3.000000 
0.540000,	 0.007425,	 1.000000,	 1.000000,	 0.000000,	 0.698413,	 0.079365,	 0.333333,	 3.000000 
0.564000,	 0.007425,	 1.000000,	 1.000000,	 0.000000,	 0.698413,	 0.079365,	 0.333333,	 3.000000 
0.588000,	 0.007425,	 1.000000,	 1.000000,	 0.000000,	 0.698413,	 0.079365,	 0.333333,	 3.000000 
0.612000,	 0.007425,	 1.000000,	 1.000000,	 0.000000,	 0.698413,	 0.079365,	 0.333333,	 3.000000 
0.636000,	 0.007425,	 1.000000,	 1.000000,	 0.000000,	 0.698413,	 0.079365,	 0.333333,	 3.000000 
0.660000,	 0.007425,	 1.000000,	 1.000000,	 0.000000,	 0.698413,	 0.079365,	 0.333333,	 3.000000 
0.684000,	 0.007425,	 1.000000,	 1.000000,	 0.000000,	 0.698413,	 0.079365,	 0.333333,	 3.000000 
0.708000,	 0.007425,	 1.000000,	 1.000000,	 0.000000,	 0.698413,	 0.079365,	 0.333333,	 3.000000 
0.732000,	 0.007425,	 1.000000,	 1.000000,	 0.000000,	 0.698413,	 0.079365,	 0.333333,	 3.000000 
0.756000,	 0.007425,	 1.000000,	 1.000000,	 0.000000,	 0.698413,	 0.079365,	 0.333333,	 3.000000 
0.780000,	 0.007425,	 1.000000,	 1.000000,	 0.000000,	 0.698413,	 0.079365,	 0.333333,	 3.000000 
0.804000,	 0.007425,	 1.000000,	 1.000000,	 0.000000,	 0.698413,	 0.079365,	 0.333333,	 3.000000 
0.828000,	 0.007425,	 1.000000,	 1.000000,	 0.000000,	 0.698413,	 0.079365,	 0.333333,	 3.000000 
0.852000,	 0.007425,	 1.000000,	 1.000000,	 0.000000,	 0.698413,	 0.079365,	 0.333333,	 3.000000 
0.876000,	 0.007425,	 1.000000,	 1.000000,	 0.000000,	 0.698413,	 0.079365,	 0.333333,	 3.000000 
0.900000,	 0.007425,	 1.000000,	 1.000000,	 0.000000,	 0.698413,	 0.079365,	 0.333333,	 3.000000 
0.924000,	 0.007425,	 1.000000,	 1.000000,	 0.000000,	 0.698413,	 0.079365,	 0.333333,	 3.000000 
0.948000,	 0.007425,	 1.000000,	 1.000000,	 0.000000,	 0.698413,	 0.079365,	 0.333333,	 3.000000 
0.972000,	 0.007425,	 1.000000,	 1.000000,	 0.000000,	 0.698413,	 0.079365,	 0.333333,	 3.000000 
0.996000,	 0.009416,	 1.227761,	 0.959091,	 0.084116,	 0.689560,	 0.111036,	 0.355827,	 2.705733 
1.020000,	 0.017376,	 2.167827,	 0.744013,	 0.273296,	 0.652710,	 0.293599,	 0.435441,	 1.820270 
1.044000,	 0.029317,	 2.596994,	 0.685164,	 0.314126,	 0.646043,	 0.376025,	 0.450233,	 1.674114 
1.068000,	 0.041257,	 2.758784,	 0.666666,	 0.324635,	 0.643356,	 0.406578,	 0.454231,	 1.632442 
1.092000,	 0.053198,	 2.818660,	 0.660263,	 0.327368,	 0.641722,	 0.417346,	 0.455293,	 1.618661 
1.116000,	 0.065139,	 2.842350,	 0.657749,	 0.327974,	 0.640558,	 0.421188,	 0.455474,	 1.613668 
1.140000,	 0.077079,	 2.852893,	 0.656606,	 0.328007,	 0.639680,	 0.422594,	 0.455389,	 1.611754 
1.164000,	 0.089020,	 2.858371,	 0.656002,	 0.327903,	 0.638998,	 0.423117,	 0.455234,	 1.611014 
1.188000,	 0.100960,	 2.861734,	 0.655635,	 0.327785,	 0.638454,	 0.423312,	 0.455071,	 1.610752 
1.212000,	 0.112901,	 2.864120,	 0.655385,	 0.327680,	 0.638009,	 0.423383,	 0.454920,	 1.610694 
1.236000,	 0.124842,	 2.865997,	 0.655200,	 0.327593,	 0.637640,	 0.423408,	 0.454785,	 1.610725 
1.260000,	 0.136782,	 2.867569,	 0.655056,	 0.327521,	 0.637327,	 0.423417,	 0.454665,	 1.610796 
1.284000,	 0.148723,	 2.868935,	 0.654939,	 0.327462,	 0.637058,	 0.423420,	 0.454558,	 1.610884 
1.308000,	 0.160663,	 2.870148,	 0.654842,	 0.327413,	 0.636825,	 0.423423,	 0.454464,	 1.610979 
1.332000,	 0.172604,	 2.871238,	 0.654759,	 0.327371,	 0.636620,	 0.423426,	 0.454379,	 1.611077 
1.356000,	 0.184545,	 2.872225,	 0.654689,	 0.327336,	 0.636438,	 0.423429,	 0.454302,	 1.611176 
1.380000,	 0.196485,	 2.873123,	 0.654629,	 0.327305,	 0.636276,	 0.423431,	 0.454233,	 1.611274 
1.404000,	 0.208426,	 2.873944,	 0.654577,	 0.327279,	 0.636130,	 0.423434,	 0.454169,	 1.611370 
1.428000,	 0.220366,	 2.874697,	 0.654531,	 0.327257,	 0.635998,	 0.423436,	 0.454111,	 1.611465 
1.452000,	 0.232307,	 2.875390,	 0.654491,	 0.327237,	 0.635878,	 0.423438,	 0.454057,	 1.611559 
1.476000,	 0.244248,	 2.876029,	 0.654456,	 0.327220,	 0.635769,	 0.423439,	 0.454007,	 1.611651 
1.500000,	 0.253203,	 2.142302,	 0.741656,	 0.250137,	 0.645961,	 0.291053,	 0.436124,	 1.794680 
1.524000,	 0.256188,	 1.451652,	 0.806268,	 0.136558,	 0.654379,	 0.185823,	 0.423334,	 1.931693 
1.548000,	 0.256188,	 1.161852,	 0.842735,	 0.072552,	 0.660427,	 0.140674,	 0.411714,	 2.054465 
1.572000,	 0.256188,	 1.025157,	 0.862970,	 0.038426,	 0.663841,	 0.119224,	 0.403506,	 2.140798 
1.596000,	 0.256188,	 0.956188,	 0.874479,	 0.020477,	 0.665777,	 0.108321,	 0.398243,	 2.196442 
1.620000,	 0.256188,	 0.919936,	 0.881429,	 0.010996,	 0.667040,	 0.102488,	 0.394932,	 2.232022 
1.644000,	 0.256188,	 0.900370,	 0.885964,	 0.005938,	 0.668002,	 0.099227,	 0.392798,	 2.255572 
1.668000,	 0.256188,	 0.889609,	 0.889165,	 0.003213,	 0.668809,	 0.097322,	 0.391354,	 2.272037 
1.692000,	 0.256188,	 0.883595,	 0.891584,	 0.001734,	 0.669513,	 0.096153,	 0.390318,	 2.284257 
1.716000,	 0.256188,	 0.880177,	 0.893517,	 0.000927,	 0.670137,	 0.095394,	 0.389529,	 2.293842 
1.740000,	 0.256188,	 0.878193,	 0.895125,	 0.000486,	 0.670694,	 0.094869,	 0.388895,	 2.301715 
1.764000,	 0.256188,	 0.877011,	 0.896504,	 0.000246,	 0.671191,	 0.094483,	 0.388363,	 2.308417 
1.788000,	 0.256188,	 0.876281,	 0.897712,	 0.000116,	 0.671636,	 0.094180,	 0.387902,	 2.314276 
1.812000,	 0.256188,	 0.875810,	 0.898789,	 0.000046,	 0.672037,	 0.093931,	 0.387493,	 2.319498 
1.836000,	 0.256188,	 0.875494,	 0.899758,	 0.000008,	 0.672397,	 0.093718,	 0.387123,	 2.324217 
1.860000,	 0.256188,	 0.875274,	 0.900640,	 -0.000012,	 0.672724,	 0.093531,	 0.386786,	 2.328525 
1.884000,	 0.256188,	 0.875118,	 0.901446,	 -0.000023,	 0.673021,	 0.093364,	 0.386474,	 2.332487 
1.908000,	 0.256188,	 0.875009,	 0.902189,	 -0.000029,	 0.673293,	 0.093213,	 0.386186,	 2.336152 
1.932000,	 0.256188,	 0.874937,	 0.902875,	 -0.000033,	 0.673541,	 0.093076,	 0.385917,	 2.339557 
1.956000,	 0.256188,	 0.874894,	 0.903512,	 -0.000035,	 0.673770,	 0.092950,	 0.385666,	 2.342734 
1.980000,	 0.256188,	 0.874876,	 0.904105,	 -0.000037,	 0.673982,	 0.092834,	 0.385429,	 2.345709 
2.004000,	 0.256188,	 0.874878,	 0.904661,	 -0.000038,	 0.674178,	 0.092727,	 0.385207,	 2.348507 
2.028000,	 0.256188,	 0.874894,	 0.905183,	 -0.000038,	 0.674361,	 0.092628,	 0.384996,	 2.351149 
2.052000,	 0.256188,	 0.874917,	 0.905676,	 -0.000038,	 0.674532,	 0.092534,	 0.384796,	 2.353654 
2.076000,	 0.256188,	 0.874943,	 0.906144,	 -0.000036,	 0.674693,	 0.092444,	 0.384605,	 2.356042 
2.100000,	 0.256188,	 0.874962,	 0.906591,	 -0.000033,	 0.674845,	 0.092358,	 0.384421,	 2.358330 
2.124000,	 0.256188,	 0.874971,	 0.907019,	 -0.000030,	 0.674990,	 0.092274,	 0.384244,	 2.360532 
2.148000,	 0.256188,	 0.874963,	 0.907431,	 -0.000025,	 0.675128,	 0.092190,	 0.384072,	 2.362662 
2.172000,	 0.256188,	 0.874933,	 0.907830,	 -0.000019,	 0.675261,	 0.092107,	 0.383904,	 2.364732 
2.196000,	 0.256188,	 0.874878,	 0.908218,	 -0.000012,	 0.675388,	 0.092023,	 0.383740,	 2.366750 
2.220000,	 0.256188,	 0.874798,	 0.908595,	 -0.000005,	 0.675511,	 0.091937,	 0.383580,	 2.368725 
2.244000,	 0.256188,	 0.874691,	 0.908964,	 0.000002,	 0.675630,	 0.091850,	 0.383422,	 2.370660 
2.268000,	 0.256188,	 0.874559,	 0.909324,	 0.000008,	 0.675745,	 0.091762,	 0.383267,	 2.372558 
2.292000,	 0.256188,	 0.874405,	 0.909676,	 0.000014,	 0.675857,	 0.091673,	 0.383115,	 2.374420 
2.316000,	 0.256188,	 0.874234,	 0.910020,	 0.000020,	 0.675965,	 0.091584,	 0.382965,	 2.376245 
2.340000,	 0.256188,	 0.874049,	 0.910355,	 0.000024,	 0.676070,	 0.091494,	 0.382819,	 2.378032 
2.364000,	 0.256188,	 0.873856,	 0.910682,	 0.000027,	 0.676171,	 0.091405,	 0.382675,	 2.379779 
2.388000,	 0.256188,	 0.873661,	 0.911000,	 0.000029,	 0.676269,	 0.091318,	 0.382535,	 2.381481 
2.412000,	 0.256188,	 0.873468,	 0.911308,	 0.000029,	 0.676363,	 0.091233,	 0.382398,	 2.383138 
2.436000,	 0.256188,	 0.873283,	 0.911606,	 0.000029,	 0.676454,	 0.091150,	 0.382266,	 2.384745 
2.460000,	 0.256188,	 0.873110,	 0.911894,	 0.000027,	 0.676541,	 0.091071,	 0.382137,	 2.386301 
2.484000,	 0.256188,	 0.872952,	 0.912172,	 0.000025,	 0.676625,	 0.090995,	 0.382013,	 2.387805 
2.508000,	 0.256188,	 0.872812,	 0.912439,	 0.000022,	 0.676705,	 0.090923,	 0.381893,	 2.389256 
2.532000,	 0.256188,	 0.872692,	 0.912696,	 0.000018,	 0.676782,	 0.090856,	 0.381777,	 2.390653 
2.556000,	 0.256188,	 0.872592,	 0.912943,	 0.000014,	 0.676855,	 0.090792,	 0.381665,	 2.391999 
2.580000,	 0.256188,	 0.872512,	 0.913181,	 0.000010,	 0.676926,	 0.090733,	 0.381558,	 2.393294 
2.604000,	 0.256188,	 0.872452,	 0.913409,	 0.000006,	 0.676993,	 0.090678,	 0.381455,	 2.394541 
2.628000,	 0.256188,	 0.872411,	 0.913629,	 0.000002,	 0.677058,	 0.090626,	 0.381355,	 2.395743 
2.652000,	 0.256188,	 0.872386,	 0.913840,	 -0.000001,	 0.677120,	 0.090578,	 0.381259,	 2.396902 
2.676000,	 0.256188,	 0.872375,	 0.914044,	 -0.000004,	 0.677180,	 0.090532,	 0.381166,	 2.398023 
2.700000,	 0.256188,	 0.872376,	 0.914242,	 -0.000007,	 0.677238,	 0.090489,	 0.381076,	 2.399109 
2.724000,	 0.256188,	 0.872386,	 0.914434,	 -0.000009,	 0.677294,	 0.090449,	 0.380988,	 2.400164 
2.748000,	 0.256188,	 0.872402,	 0.914620,	 -0.000010,	 0.677348,	 0.090410,	 0.380903,	 2.401191 
2.772000,	 0.256188,	 0.872422,	 0.914802,	 -0.000011,	 0.677401,	 0.090372,	 0.380819,	 2.402195 
2.796000,	 0.256188,	 0.872443,	 0.914980,	 -0.000011,	 0.677453,	 0.090336,	 0.380737,	 2.403177 
2.820000,	 0.256188,	 0.872463,	 0.915154,	 -0.000011,	 0.677503,	 0.090300,	 0.380657,	 2.404143 
2.844000,	 0.256188,	 0.872479,	 0.915326,	 -0.000010,	 0.677553,	 0.090264,	 0.380578,	 2.405094 
2.868000,	 0.256188,	 0.872491,	 0.915495,	 -0.000009,	 0.677601,	 0.090228,	 0.380500,	 2.406033 
2.892000,	 0.256188,	 0.872495,	 0.915662,	 -0.000007,	 0.677649,	 0.090192,	 0.380422,	 2.406962 
2.916000,	 0.256188,	 0.872491,	 0.915827,	 -0.000005,	 0.677696,	 0.090155,	 0.380345,	 2.407883 
2.940000,	 0.256188,	 0.872477,	 0.915992,	 -0.000003,	 0.677743,	 0.090117,	 0.380269,	 2.408799 
2.964000,	 0.256188,	 0.872453,	 0.916155,	 -0.000001,	 0.677789,	 0.090079,	 0.380193,	 2.409710 
2.988000,	 0.256188,	 0.872417,	 0.916317,	 0.000002,	 0.677834,	 0.090039,	 0.380117,	 2.410618 
3.012000,	 0.256188,	 0.872370,	 0.916479,	 0.000005,	 0.677880,	 0.089998,	 0.380041,	 2.411523 
3.036000,	 0.256188,	 0.872310,	 0.916640,	 0.000008,	 0.677925,	 0.089956,	 0.379966,	 2.412427 
3.060000,	 0.256188,	 0.872238,	 0.916801,	 0.000011,	 0.677970,	 0.089913,	 0.379890,	 2.413331 
3.084000,	 0.256188,	 0.872153,	 0.916961,	 0.000014,	 0.678014,	 0.089869,	 0.379815,	 2.414234 
3.108000,	 0.256188,	 0.872055,	 0.917121,	 0.000017,	 0.678059,	 0.089823,	 0.379739,	 2.415137 
3.132000,	 0.256188,	 0.871945,	 0.917282,	 0.000020,	 0.678103,	 0.089775,	 0.379663,	 2.416042 
3.156000,	 0.256188,	 0.871822,	 0.917442,	 0.000023,	 0.678147,	 0.089727,	 0.379587,	 2.416947 
3.180000,	 0.256188,	 0.871686,	 0.917602,	 0.000026,	 0.678191,	 0.089677,	 0.379511,	 2.417853 
3.204000,	 0.256188,	 0.871537,	 0.917762,	 0.000029,	 0.678234,	 0.089626,	 0.379435,	 2.418760 
3.228000,	 0.256188,	 0.871377,	 0.917922,	 0.000032,	 0.678278,	 0.089573,	 0.379359,	 2.419669 
3.252000,	 0.256188,	 0.871204,	 0.918083,	 0.000034,	 0.678322,	 0.089519,	 0.379282,	 2.420580 
3.276000,	 0.256188,	 0.871018,	 0.918243,	 0.000037,	 0.678365,	 0.089464,	 0.379205,	 2.421492 
3.300000,	 0.256188,	 0.870821,	 0.918404,	 0.000040,	 0.678408,	 0.089407,	 0.379129,	 2.422407 
3.324000,	 0.256188,	 0.870612,	 0.918564,	 0.000043,	 0.678452,	 0.089350,	 0.379051,	 2.423324 
3.348000,	 0.256188,	 0.870391,	 0.918726,	 0.000046,	 0.678495,	 0.089291,	 0.378974,	 2.424244 
3.372000,	 0.256188,	 0.870157,	 0.918887,	 0.000049,	 0.678538,	 0.089230,	 0.378897,	 2.425166 
3.396000,	 0.256188,	 0.869912,	 0.919049,	 0.000052,	 0.678582,	 0.089168,	 0.378819,	 2.426091 
3.420000,	 0.256188,	 0.869654,	 0.919211,	 0.000054,	 0.678625,	 0.089105,	 0.378740,	 2.427021 
3.444000,	 0.256188,	 0.869384,	 0.919374,	 0.000057,	 0.678668,	 0.089040,	 0.378662,	 2.427954 
3.468000,	 0.256188,	 0.869102,	 0.919537,	 0.000060,	 0.678712,	 0.088974,	 0.378583,	 2.428891 
3.492000,	 0.256188,	 0.868807,	 0.919701,	 0.000063,	 0.678756,	 0.088907,	 0.378504,	 2.429833 
3.516000,	 0.256188,	 0.868498,	 0.919866,	 0.000066,	 0.678799,	 0.088838,	 0.378424,	 2.430781 
3.540000,	 0.256188,	 0.868177,	 0.920031,	 0.000069,	 0.678843,	 0.088767,	 0.378344,	 2.431734 
3.564000,	 0.256188,	 0.867841,	 0.920198,	 0.000073,	 0.678887,	 0.088695,	 0.378263,	 2.432694 
3.588000,	 0.256188,	 0.867492,	 0.920365,	 0.000076,	 0.678931,	 0.088621,	 0.378182,	 2.433660 
3.612000,	 0.256188,	 0.867128,	 0.920534,	 0.000079,	 0.678976,	 0.088546,	 0.378100,	 2.434634 
3.636000,	 0.256188,	 0.866750,	 0.920704,	 0.000083,	 0.679021,	 0.088468,	 0.378017,	 2.435616 
3.660000,	 0.256188,	 0.866357,	 0.920875,	 0.000086,	 0.679066,	 0.088389,	 0.377934,	 2.436607 
3.684000,	 0.256188,	 0.865948,	 0.921048,	 0.000090,	 0.679111,	 0.088308,	 0.377849,	 2.437606 
3.708000,	 0.256188,	 0.865523,	 0.921222,	 0.000094,	 0.679157,	 0.088225,	 0.377764,	 2.438615 
3.732000,	 0.256188,	 0.865083,	 0.921398,	 0.000097,	 0.679203,	 0.088140,	 0.377679,	 2.439634 
3.756000,	 0.256188,	 0.864626,	 0.921575,	 0.000101,	 0.679250,	 0.088053,	 0.377592,	 2.440664 
3.780000,	 0.256188,	 0.864153,	 0.921754,	 0.000105,	 0.679297,	 0.087964,	 0.377505,	 2.441704 
3.804000,	 0.256188,	 0.863664,	 0.921935,	 0.000109,	 0.679344,	 0.087873,	 0.377416,	 2.442754 
3.828000,	 0.256188,	 0.863158,	 0.922117,	 0.000113,	 0.679392,	 0.087780,	 0.377327,	 2.443816 
3.852000,	 0.256188,	 0.862636,	 0.922301,	 0.000117,	 0.679440,	 0.087685,	 0.377237,	 2.444889 
3.876000,	 0.256188,	 0.862098,	 0.922487,	 0.000121,	 0.679489,	 0.087588,	 0.377145,	 2.445973 
3.900000,	 0.256188,	 0.861544,	 0.922675,	 0.000125,	 0.679538,	 0.087489,	 0.377053,	 2.447067 
3.924000,	 0.256188,	 0.860974,	 0.922864,	 0.000128,	 0.679587,	 0.087388,	 0.376960,	 2.448172 
3.948000,	 0.256188,	 0.860390,	 0.923055,	 0.000132,	 0.679637,	 0.087286,	 0.376867,	 2.449287 
3.972000,	 0.256188,	 0.859792,	 0.923247,	 0.000135,	 0.679687,	 0.087181,	 0.376772,	 2.450411 
3.996000,	 0.256188,	 0.859180,	 0.923440,	 0.000139,	 0.679738,	 0.087075,	 0.376677,	 2.451543 
4.020000,	 0.256188,	 0.858557,	 0.923635,	 0.000142,	 0.679789,	 0.086968,	 0.376581,	 2.452684 
4.044000,	 0.256188,	 0.857922,	 0.923830,	 0.000145,	 0.679840,	 0.086859,	 0.376485,	 2.453830 
4.068000,	 0.256188,	 0.857278,	 0.924026,	 0.000147,	 0.679891,	 0.086749,	 0.376388,	 2.454981 
4.092000,	 0.256188,	 0.856627,	 0.924222,	 0.000149,	 0.679942,	 0.086639,	 0.376291,	 2.456135 
4.116000,	 0.256188,	 0.855970,	 0.924418,	 0.000151,	 0.679993,	 0.086528,	 0.376194,	 2.457290 
4.140000,	 0.256188,	 0.855311,	 0.924614,	 0.000152,	 0.680043,	 0.086417,	 0.376097,	 2.458442 
4.164000,	 0.256188,	 0.854654,	 0.924808,	 0.000152,	 0.680094,	 0.086306,	 0.376001,	 2.459587 
4.188000,	 0.256188,	 0.854005,	 0.924999,	 0.000151,	 0.680143,	 0.086197,	 0.375906,	 2.460718 
4.212000,	 0.256188,	 0.853373,	 0.925186,	 0.000148,	 0.680191,	 0.086090,	 0.375813,	 2.461826 
4.236000,	 0.256188,	 0.852773,	 0.925367,	 0.000142,	 0.680237,	 0.085989,	 0.375723,	 2.462894 
4.260000,	 0.256188,	 0.852227,	 0.925535,	 0.000132,	 0.680280,	 0.085895,	 0.375639,	 2.463898 
4.284000,	 0.256188,	 0.851773,	 0.925685,	 0.000114,	 0.680317,	 0.085815,	 0.375563,	 2.464795 
4.308000,	 0.256188,	 0.851471,	 0.925805,	 0.000083,	 0.680345,	 0.085756,	 0.375501,	 2.465520 
4.332000,	 0.256188,	 0.851421,	 0.925876,	 0.000033,	 0.680359,	 0.085733,	 0.375463,	 2.465961 
4.356000,	 0.256188,	 0.851783,	 0.925866,	 -0.000049,	 0.680349,	 0.085769,	 0.375462,	 2.465939 
4.380000,	 0.256188,	 0.852817,	 0.925726,	 -0.000184,	 0.680300,	 0.085901,	 0.375523,	 2.465166 
4.404000,	 0.256188,	 0.854942,	 0.925374,	 -0.000401,	 0.680190,	 0.086189,	 0.375683,	 2.463179 
4.428000,	 0.256188,	 0.858815,	 0.924685,	 -0.000747,	 0.679981,	 0.086727,	 0.376002,	 2.459254 
4.452000,	 0.256188,	 0.865452,	 0.923462,	 -0.001288,	 0.679618,	 0.087662,	 0.376573,	 2.452282 
4.476000,	 0.256188,	 0.876371,	 0.921415,	 -0.002108,	 0.679022,	 0.089220,	 0.377530,	 2.440644 
4.500000,	 0.256188,	 0.893729,	 0.918136,	 -0.003299,	 0.678083,	 0.091729,	 0.379065,	 2.422121 
4.524000,	 0.256188,	 0.920370,	 0.913099,	 -0.004923,	 0.676672,	 0.095639,	 0.381418,	 2.393996 
4.548000,	 0.256188,	 0.959637,	 0.905719,	 -0.006951,	 0.674660,	 0.101519,	 0.384844,	 2.353540 
4.572000,	 0.256188,	 1.014792,	 0.895499,	 -0.009194,	 0.671963,	 0.109988,	 0.389536,	 2.299007 
4.596000,	 0.256188,	 1.088011,	 0.882259,	 -0.011294,	 0.668595,	 0.121570,	 0.395513,	 2.230851 
4.620000,	 0.256188,	 1.179253,	 0.866324,	 -0.012827,	 0.664694,	 0.136489,	 0.402540,	 2.152382 
4.644000,	 0.256188,	 1.285561,	 0.848550,	 -0.013481,	 0.660509,	 0.154472,	 0.410150,	 2.069137 
4.668000,	 0.256188,	 1.401269,	 0.830130,	 -0.013189,	 0.656326,	 0.174700,	 0.417782,	 1.987243 
4.692000,	 0.256188,	 1.519164,	 0.812280,	 -0.012115,	 0.652407,	 0.195932,	 0.424927,	 1.911788 
4.716000,	 0.256188,	 1.632073,	 0.795988,	 -0.010551,	 0.648932,	 0.216790,	 0.431235,	 1.845997 
4.740000,	 0.256188,	 1.734240,	 0.781882,	 -0.008790,	 0.645996,	 0.236056,	 0.436533,	 1.791233 
4.764000,	 0.256188,	 1.822062,	 0.770231,	 -0.007060,	 0.643618,	 0.252877,	 0.440795,	 1.747439 
4.788000,	 0.256188,	 1.894110,	 0.761016,	 -0.005497,	 0.641766,	 0.266825,	 0.444094,	 1.713682 
4.812000,	 0.256188,	 1.950693,	 0.754034,	 -0.004162,	 0.640377,	 0.277845,	 0.446550,	 1.688602 
4.836000,	 0.256188,	 1.993235,	 0.748986,	 -0.003066,	 0.639380,	 0.286137,	 0.448303,	 1.670727 
4.860000,	 0.256188,	 2.023702,	 0.745545,	 -0.002188,	 0.638703,	 0.292046,	 0.449486,	 1.658666 
4.884000,	 0.256188,	 2.044180,	 0.743399,	 -0.001497,	 0.638282,	 0.295964,	 0.450219,	 1.651197 
4.908000,	 0.256188,	 2.056624,	 0.742276,	 -0.000959,	 0.638061,	 0.298271,	 0.450601,	 1.647303 
4.932000,	 0.256188,	 2.062733,	 0.741946,	 -0.000542,	 0.637996,	 0.299305,	 0.450713,	 1.646163 
4.956000,	 0.256188,	 2.063916,	 0.742226,	 -0.000220,	 0.638050,	 0.299350,	 0.450617,	 1.647131 
4.980000,	 0.256188,	 2.061305,	 0.742970,	 0.000029,	 0.638196,	 0.298637,	 0.450365,	 1.649706 
5.004000,	 0.256188,	 2.055793,	 0.744065,	 0.000222,	 0.638413,	 0.297347,	 0.449993,	 1.653501 
5.028000,	 0.256188,	 2.048074,	 0.745423,	 0.000373,	 0.638683,	 0.295623,	 0.449532,	 1.658222 
5.052000,	 0.256188,	 2.038683,	 0.746979,	 0.000492,	 0.638993,	 0.293574,	 0.449001,	 1.663646 
5.076000,	 0.256188,	 2.028032,	 0.748682,	 0.000585,	 0.639335,	 0.291284,	 0.448420,	 1.669600 
5.100000,	 0.256188,	 2.016436,	 0.750492,	 0.000660,	 0.639699,	 0.288818,	 0.447800,	 1.675955 
5.124000,	 0.256188,	 2.004136,	 0.752381,	 0.000720,	 0.640082,	 0.286225,	 0.447151,	 1.682612 
5.148000,	 0.256188,	 1.991320,	 0.754326,	 0.000768,	 0.640477,	 0.283542,	 0.446481,	 1.689494 
5.172000,	 0.256188,	 1.978130,	 0.756309,	 0.000808,	 0.640882,	 0.280800,	 0.445795,	 1.696542 
5.196000,	 0.256188,	 1.964678,	 0.758318,	 0.000841,	 0.641294,	 0.278019,	 0.445098,	 1.703711 
5.220000,	 0.256188,	 1.951050,	 0.760341,	 0.000868,	 0.641712,	 0.275217,	 0.444393,	 1.710967 
5.244000,	 0.256188,	 1.937313,	 0.762371,	 0.000891,	 0.642132,	 0.272407,	 0.443683,	 1.718280 
5.268000,	 0.256188,	 1.923521,	 0.764403,	 0.000910,	 0.642554,	 0.269599,	 0.442970,	 1.725630 
5.292000,	 0.256188,	 1.909716,	 0.766430,	 0.000926,	 0.642977,	 0.266802,	 0.442257,	 1.733000 
5.316000,	 0.256188,	 1.895930,	 0.768450,	 0.000940,	 0.643401,	 0.264022,	 0.441543,	 1.740376 
5.340000,	 0.256188,	 1.882190,	 0.770459,	 0.000952,	 0.643823,	 0.261263,	 0.440830,	 1.747747 
5.364000,	 0.256188,	 1.868516,	 0.772454,	 0.000963,	 0.644245,	 0.258529,	 0.440119,	 1.755105 
5.388000,	 0.256188,	 1.854926,	 0.774436,	 0.000972,	 0.644665,	 0.255823,	 0.439411,	 1.762442 
5.412000,	 0.256188,	 1.841434,	 0.776400,	 0.000979,	 0.645083,	 0.253148,	 0.438706,	 1.769753 
5.436000,	 0.256188,	 1.828049,	 0.778348,	 0.000986,	 0.645499,	 0.250505,	 0.438004,	 1.777034 
5.460000,	 0.256188,	 1.814781,	 0.780277,	 0.000992,	 0.645912,	 0.247895,	 0.437307,	 1.784280 
5.484000,	 0.256188,	 1.801636,	 0.782188,	 0.000997,	 0.646323,	 0.245320,	 0.436614,	 1.791489 
5.508000,	 0.256188,	 1.788621,	 0.784079,	 0.001001,	 0.646731,	 0.242780,	 0.435925,	 1.798658 
5.532000,	 0.256188,	 1.775739,	 0.785950,	 0.001005,	 0.647136,	 0.240276,	 0.435241,	 1.805784 
5.556000,	 0.256188,	 1.762994,	 0.787802,	 0.001008,	 0.647537,	 0.237807,	 0.434562,	 1.812868 
5.580000,	 0.256188,	 1.750388,	 0.789633,	 0.001011,	 0.647936,	 0.235375,	 0.433887,	 1.819906 
5.604000,	 0.256188,	 1.737924,	 0.791444,	 0.001013,	 0.648332,	 0.232979,	 0.433218,	 1.826898 
5.628000,	 0.256188,	 1.725603,	 0.793235,	 0.001015,	 0.648724,	 0.230618,	 0.432554,	 1.833843 
5.652000,	 0.256188,	 1.713424,	 0.795006,	 0.001016,	 0.649113,	 0.228293,	 0.431895,	 1.840741 
5.676000,	 0.256188,	 1.701390,	 0.796757,	 0.001017,	 0.649499,	 0.226004,	 0.431241,	 1.847591 
5.700000,	 0.256188,	 1.689499,	 0.798487,	 0.001018,	 0.649881,	 0.223750,	 0.430593,	 1.854393 
5.724000,	 0.256188,	 1.677752,	 0.800198,	 0.001019,	 0.650260,	 0.221531,	 0.429949,	 1.861147 
5.748000,	 0.256188,	 1.666148,	 0.801889,	 0.001019,	 0.650636,	 0.219346,	 0.429311,	 1.867852 
5.772000,	 0.256188,	 1.654685,	 0.803561,	 0.001019,	 0.651008,	 0.217195,	 0.428678,	 1.874509 
5.796000,	 0.256188,	 1.643363,	 0.805213,	 0.001019,	 0.651377,	 0.215078,	 0.428051,	 1.881118 
5.820000,	 0.256188,	 1.632181,	 0.806847,	 0.001018,	 0.651742,	 0.212994,	 0.427428,	 1.887679 
5.844000,	 0.256188,	 1.621137,	 0.808461,	 0.001018,	 0.652105,	 0.210942,	 0.426811,	 1.894193 
5.868000,	 0.256188,	 1.610229,	 0.810058,	 0.001017,	 0.652464,	 0.208922,	 0.426199,	 1.900659 
5.892000,	 0.256188,	 1.599457,	 0.811635,	 0.001016,	 0.652819,	 0.206933,	 0.425591,	 1.907078 
5.916000,	 0.256188,	 1.588817,	 0.813195,	 0.001015,	 0.653172,	 0.204975,	 0.424989,	 1.913451 
5.940000,	 0.256188,	 1.578309,	 0.814738,	 0.001014,	 0.653521,	 0.203048,	 0.424392,	 1.919779 
5.964000,	 0.256188,	 1.567931,	 0.816263,	 0.001013,	 0.653868,	 0.201150,	 0.423799,	 1.926061 
5.988000,	 0.256188,	 1.557680,	 0.817771,	 0.001011,	 0.654211,	 0.199281,	 0.423212,	 1.932298 
0.012000,	 0.022277,	 1.000000,	 1.000000,	 0.000000,	 0.698413,	 0.079365,	 0.333333,	 3.000000 
0.036000,	 0.022277,	 1.000000,	 1.000000,	 0.000000,	 0.698413,	 0.079365,	 0.333333,	 3.000000 
0.060000,	 0.022277,	 1.000000,	 1.000000,	 0.000000,	 0.698413,	 0.079365,	 0.333333,	 3.000000 
0.084000,	 0.022277,	 1.000000,	 1.000000,	 0.000000,	 0.698413,	 0.079365,	 0.333333,	 3.000000 
0.108000,	 0.022277,	 1.000000,	 1.000000,	 0.000000,	 0.698413,	 0.079365,	 0.333333,	 3.000000 
0.132000,	 0.022277,	 1.000000,	 1.000000,	 0.000000,	 0.698413,	 0.079365,	 0.333333,	 3.000000 
0.156000,	 0.022277,	 1.000000,	 1.000000,	 0.000000,	 0.698413,	 0.079365,	 0.333333,	 3.000000 
0.180000,	 0.022277,	 1.000000,	 1.000000,	 0.000000,	 0.698413,	 0.079365,	 0.333333,	 3.000000 
0.204000,	 0.022277,	 1.000000,	 1.000000,	 0.000000,	 0.698413,	 0.079365,	 0.333333,	 3.000000 
0.228000,	 0.022277,	 1.000000,	 1.000000,	 0.000000,	 0.698413,	 0.079365,	 0.333333,	 3.000000 
0.252000,	 0.022277,	 1.000000,	 1.000000,	 0.000000,	 0.698413,	 0.079365,	 0.333333,	 3.000000 
0.276000,	 0.022277,	 1.000000,	 1.000000,	 0.000000,	 0.698413,	 0.079365,	 0.333333,	 3.000000 
0.300000,	 0.022277,	 1.000000,	 1.000000,	 0.000000,	 0.698413,	 0.079365,	 0.333333,	 3.000000 
0.324000,	 0.022277,	 1.000000,	 1.000000,	 0.000000,	 0.698413,	 0.079365,	 0.333333,	 3.000000 
0.348000,	 0.022277,	 1.000000,	 1.000000,	 0.000000,	 0.698413,	 0.079365,	 0.333333,	 3.000000 
0.372000,	 0.022277,	 1.000000,	 1.000000,	 0.000000,	 0.698413,	 0.079365,	 0.333333,	 3.000000 
0.396000,	 0.022277,	 1.000000,	 1.000000,	 0.000000,	 0.698413,	 0.079365,	 0.333333,	 3.000000 
0.420000,	 0.022277,	 1.000000,	 1.000000,	 0.000000,	 0.698413,	 0.079365,	 0.333333,	 3.000000 
0.444000,	 0.022277,	 1.000000,	 1.000000,	 0.000000,	 0.698413,	 0.079365,	 0.333333,	 3.000000 
0.468000,	 0.022277,	 1.000000,	 1.000000,	 0.000000,	 0.698413,	 0.079365,	 0.333333,	 3.000000 
0.492000,	 0.022277,	 1.000000,	 1.000000,	 0.000000,	 0.698413,	 0.079365,	 0.333333,	 3.000000 
0.516000,	 0.022277,	 1.000000,	 1.000000,	 0.000000,	 0.698413,	 0.079365,	 0.333333,	 3.000000 
0.540000,	 0.022277,	 1.000000,	 1.000000,	 0.000000,	 0.698413,	 0.079365,	 0.333333,	 3.000000 
0.564000,	 0.022277,	 1.000000,	 1.000000,	 0.000000,	 0.698413,	 0.079365,	 0.333333,	 3.000000 
0.588000,	 0.022277,	 1.000000,	 1.000000,	 0.000000,	 0.698413,	 0.079365,	 0.333333,	 3.000000 
0.612000,	 0.022277,	 1.000000,	 1.000000,	 0.000000,	 0.698413,	 0.079365,	 0.333333,	 3.000000 
0.636000,	 0.022277,	 1.000000,	 1.000000,	 0.000000,	 0.698413,	 0.079365,	 0.333333,	 3.000000 
0.660000,	 0.022277,	 1.000000,	 1.000000,	 0.000000,	 0.698413,	 0.079365,	 0.333333,	 3.000000 
0.684000,	 0.022277,	 1.000000,	 1.000000,	 0.000000,	 0.698413,	 0.079365,	 0.333333,	 3.000000 
0.708000,	 0.022277,	 1.000000,	 1.000000,	 0.000000,	 0.698413,	 0.079365,	 0.333333,	 3.000000 
0.732000,	 0.022277,	 1.000000,	 1.000000,	 0.000000,	 0.698413,	 0.079365,	 0.333333,	 3.000000 
0.756000,	 0.022277,	 1.000000,	 1.000000,	 0.000000,	 0.698413,	 0.079365,	 0.333333,	 3.000000 
0.780000,	 0.022277,	 1.000000,	 1.000000,	 0.000000,	 0.698413,	 0.079365,	 0.333333,	 3.000000 
0.804000,	 0.022277,	 1.000000,	 1.000000,	 0.000000,	 0.698413,	 0.079365,	 0.333333,	 3.000000 
0.828000,	 0.022277,	 1.000000,	 1.000000,	 0.000000,	 0.698413,	 0.079365,	 0.333333,	 3.000000 
0.852000,	 0.022277,	 1.000000,	 1.000000,	 0.000000,	 0.698413,	 0.079365,	 0.333333,	 3.000000 
0.876000,	 0.022277,	 1.000000,	 1.000000,	 0.000000,	 0.698413,	 0.079365,	 0.333333,	 3.000000 
0.900000,	 0.022277,	 1.000000,	 1.000000,	 0.000000,	 0.698413,	 0.079365,	 0.333333,	 3.000000 
0.924000,	 0.022277,	 1.000000,	 1.000000,	 0.000000,	 0.698413,	 0.079365,	 0.333333,	 3.000000 
0.948000,	 0.022277,	 1.000000,	 1.000000,	 0.000000,	 0.698413,	 0.079365,	 0.333333,	 3.000000 
0.972000,	 0.022277,	 1.000000,	 1.000000,	 0.000000,	 0.698413,	 0.079365,	 0.333333,	 3.000000 
0.996000,	 0.024247,	 1.081957,	 0.984462,	 0.031578,	 0.693136,	 0.090043,	 0.341337,	 2.885623 
1.020000,	 0.032129,	 1.615597,	 0.850419,	 0.176263,	 0.657993,	 0.181498,	 0.396582,	 2.189947 
1.044000,	 0.043951,	 2.223487,	 0.740056,	 0.268663,	 0.643106,	 0.296324,	 0.431947,	 1.822711 
1.068000,	 0.055772,	 2.594507,	 0.687542,	 0.305788,	 0.638700,	 0.369031,	 0.446240,	 1.686261 
1.092000,	 0.067594,	 2.762599,	 0.666662,	 0.319541,	 0.637448,	 0.402428,	 0.451595,	 1.637057 
1.116000,	 0.079416,	 2.829045,	 0.659009,	 0.324540,	 0.637090,	 0.415621,	 0.453516,	 1.619761 
1.140000,	 0.091238,	 2.854264,	 0.656280,	 0.326348,	 0.636948,	 0.420541,	 0.454173,	 1.613800 
1.164000,	 0.103059,	 2.864036,	 0.655302,	 0.326996,	 0.636838,	 0.422348,	 0.454370,	 1.611807 
1.188000,	 0.114881,	 2.868152,	 0.654936,	 0.327220,	 0.636723,	 0.423013,	 0.454401,	 1.611196 
1.212000,	 0.126703,	 2.870190,	 0.654783,	 0.327289,	 0.636599,	 0.423260,	 0.454373,	 1.611064 
1.236000,	 0.138525,	 2.871450,	 0.654704,	 0.327300,	 0.636471,	 0.423354,	 0.454324,	 1.611094 
1.260000,	 0.150347,	 2.872399,	 0.654651,	 0.327290,	 0.636344,	 0.423392,	 0.454269,	 1.611174 
1.284000,	 0.162168,	 2.873211,	 0.654608,	 0.327274,	 0.636220,	 0.423409,	 0.454214,	 1.611268 