TITLE = "Final State"
VARIABLES = "X", "Y", "rho", "u", "v", "e", "p", "c", "M"
ZONE I=100, J=100, DATAPACKING=POINT
0.025000,	 0.009777,	 2.492699,	 0.072646,	 -0.000052,	 0.386914,	 0.383153,	 0.463890,	 0.156602 
0.075000,	 0.009530,	 2.493505,	 0.073035,	 -0.000102,	 0.386971,	 0.383305,	 0.463907,	 0.157434 
0.125000,	 0.009282,	 2.494025,	 0.073698,	 -0.000149,	 0.387033,	 0.383399,	 0.463916,	 0.158860 
0.175000,	 0.009035,	 2.494253,	 0.074637,	 -0.000193,	 0.387102,	 0.383434,	 0.463915,	 0.160886 
0.225000,	 0.008787,	 2.494176,	 0.075856,	 -0.000236,	 0.387179,	 0.383407,	 0.463906,	 0.163516 
0.275000,	 0.008540,	 2.493779,	 0.077359,	 -0.000276,	 0.387264,	 0.383316,	 0.463888,	 0.166763 
0.325000,	 0.008292,	 2.493043,	 0.079152,	 -0.000315,	 0.387358,	 0.383156,	 0.463860,	 0.170639 
0.375000,	 0.008045,	 2.491940,	 0.081245,	 -0.000353,	 0.387462,	 0.382924,	 0.463822,	 0.175165 
0.425000,	 0.007797,	 2.490440,	 0.083647,	 -0.000388,	 0.387579,	 0.382611,	 0.463772,	 0.180363 
0.475000,	 0.007549,	 2.488506,	 0.086371,	 -0.000423,	 0.387708,	 0.382212,	 0.463711,	 0.186262 
0.525000,	 0.007302,	 2.486093,	 0.089433,	 -0.000456,	 0.387851,	 0.381717,	 0.463635,	 0.192897 
0.575000,	 0.007054,	 2.483147,	 0.092851,	 -0.000489,	 0.388012,	 0.381114,	 0.463543,	 0.200310 
0.625000,	 0.006807,	 2.479601,	 0.096649,	 -0.000521,	 0.388191,	 0.380391,	 0.463434,	 0.208553 
0.675000,	 0.006559,	 2.475378,	 0.100853,	 -0.000552,	 0.388391,	 0.379530,	 0.463304,	 0.217686 
0.725000,	 0.006312,	 2.470380,	 0.105497,	 -0.000583,	 0.388617,	 0.378513,	 0.463151,	 0.227785 
0.775000,	 0.006064,	 2.464492,	 0.110619,	 -0.000614,	 0.388870,	 0.377315,	 0.462970,	 0.238938 
0.825000,	 0.005817,	 2.457568,	 0.116268,	 -0.000645,	 0.389157,	 0.375907,	 0.462756,	 0.251255 
0.875000,	 0.005569,	 2.449428,	 0.122499,	 -0.000676,	 0.389482,	 0.374252,	 0.462502,	 0.264866 
0.925000,	 0.005322,	 2.439847,	 0.129382,	 -0.000708,	 0.389853,	 0.372304,	 0.462202,	 0.279930 
0.975000,	 0.005074,	 2.428542,	 0.137002,	 -0.000739,	 0.390278,	 0.370006,	 0.461844,	 0.296645 
1.025000,	 0.004827,	 2.415148,	 0.145460,	 -0.000771,	 0.390766,	 0.367283,	 0.461416,	 0.315251 
1.075000,	 0.004579,	 2.399196,	 0.154882,	 -0.000803,	 0.391331,	 0.364041,	 0.460899,	 0.336048 
1.125000,	 0.004332,	 2.380067,	 0.165426,	 -0.000835,	 0.391988,	 0.360156,	 0.460272,	 0.359413 
1.175000,	 0.004084,	 2.356943,	 0.177287,	 -0.000866,	 0.392756,	 0.355465,	 0.459503,	 0.385828 
1.225000,	 0.003837,	 2.328714,	 0.190712,	 -0.000895,	 0.393660,	 0.349749,	 0.458547,	 0.415909 
1.275000,	 0.003589,	 2.293856,	 0.206016,	 -0.000919,	 0.394729,	 0.342708,	 0.457344,	 0.450466 
1.325000,	 0.003342,	 2.250236,	 0.223605,	 -0.000933,	 0.395996,	 0.333931,	 0.455804,	 0.490576 
1.375000,	 0.003094,	 2.194814,	 0.243999,	 -0.000930,	 0.397497,	 0.322839,	 0.453793,	 0.537692 
1.425000,	 0.002847,	 2.123218,	 0.267860,	 -0.000892,	 0.399260,	 0.308619,	 0.451105,	 0.593789 
1.475000,	 0.002599,	 2.029325,	 0.295944,	 -0.000790,	 0.401272,	 0.290177,	 0.447424,	 0.661442 
1.525000,	 0.002528,	 1.910861,	 0.328965,	 -0.000642,	 0.403707,	 0.267213,	 0.442464,	 0.743486 
1.575000,	 0.002634,	 1.779941,	 0.363083,	 -0.000409,	 0.406262,	 0.242320,	 0.436572,	 0.831669 
1.625000,	 0.002740,	 1.644900,	 0.397134,	 -0.000126,	 0.409040,	 0.217246,	 0.430002,	 0.923563 
1.675000,	 0.002847,	 1.465557,	 0.445229,	 0.000061,	 0.414524,	 0.184900,	 0.420273,	 1.059382 
1.725000,	 0.002953,	 1.381724,	 0.467691,	 0.000256,	 0.417470,	 0.170285,	 0.415376,	 1.125945 
1.775000,	 0.003059,	 1.300629,	 0.489081,	 0.000458,	 0.420411,	 0.156497,	 0.410431,	 1.191628 
1.825000,	 0.003165,	 1.223020,	 0.509349,	 0.000660,	 0.423318,	 0.143631,	 0.405482,	 1.256158 
1.875000,	 0.003271,	 1.149467,	 0.528465,	 0.000857,	 0.426169,	 0.131743,	 0.400571,	 1.319279 
1.925000,	 0.003377,	 1.080289,	 0.546434,	 0.001044,	 0.428945,	 0.120841,	 0.395732,	 1.380821 
1.975000,	 0.003483,	 1.015603,	 0.563290,	 0.001220,	 0.431634,	 0.110898,	 0.390988,	 1.440686 
2.025000,	 0.003589,	 0.955376,	 0.579083,	 0.001384,	 0.434228,	 0.101866,	 0.386359,	 1.498827 
2.075000,	 0.003695,	 0.899476,	 0.593871,	 0.001534,	 0.436723,	 0.093682,	 0.381855,	 1.555234 
2.125000,	 0.003801,	 0.847702,	 0.607719,	 0.001671,	 0.439117,	 0.086281,	 0.377484,	 1.609925 
2.175000,	 0.003907,	 0.799819,	 0.620689,	 0.001796,	 0.441410,	 0.079592,	 0.373252,	 1.662930 
2.225000,	 0.004013,	 0.755567,	 0.632845,	 0.001908,	 0.443603,	 0.073548,	 0.369160,	 1.714294 
2.275000,	 0.004119,	 0.714685,	 0.644246,	 0.002009,	 0.445700,	 0.068087,	 0.365207,	 1.764067 
2.325000,	 0.004226,	 0.676915,	 0.654948,	 0.002100,	 0.447702,	 0.063148,	 0.361392,	 1.812303 
2.375000,	 0.004332,	 0.642007,	 0.665004,	 0.002180,	 0.449614,	 0.058679,	 0.357712,	 1.859057 
2.425000,	 0.004438,	 0.609728,	 0.674462,	 0.002252,	 0.451439,	 0.054628,	 0.354165,	 1.904386 
2.475000,	 0.004544,	 0.579858,	 0.683369,	 0.002316,	 0.453182,	 0.050954,	 0.350745,	 1.948345 
2.525000,	 0.004650,	 0.552192,	 0.691764,	 0.002372,	 0.454845,	 0.047615,	 0.347450,	 1.990987 
2.575000,	 0.004756,	 0.526544,	 0.699686,	 0.002421,	 0.456434,	 0.044577,	 0.344274,	 2.032364 
2.625000,	 0.004862,	 0.502743,	 0.707169,	 0.002463,	 0.457951,	 0.041809,	 0.341213,	 2.072526 
2.675000,	 0.004968,	 0.480632,	 0.714245,	 0.002500,	 0.459401,	 0.039282,	 0.338263,	 2.111517 
2.725000,	 0.005074,	 0.460070,	 0.720942,	 0.002532,	 0.460786,	 0.036972,	 0.335420,	 2.149381 
2.775000,	 0.005181,	 0.440929,	 0.727286,	 0.002558,	 0.462111,	 0.034857,	 0.332680,	 2.186159 
2.825000,	 0.005286,	 0.423091,	 0.733302,	 0.002580,	 0.463377,	 0.032918,	 0.330037,	 2.221887 
2.875000,	 0.005392,	 0.406451,	 0.739010,	 0.002597,	 0.464589,	 0.031137,	 0.327490,	 2.256600 
2.925000,	 0.005498,	 0.390915,	 0.744430,	 0.002610,	 0.465748,	 0.029499,	 0.325034,	 2.290327 
2.975000,	 0.005605,	 0.376396,	 0.749581,	 0.002618,	 0.466856,	 0.027991,	 0.322666,	 2.323096 
3.025000,	 0.005711,	 0.362817,	 0.754477,	 0.002623,	 0.467917,	 0.026601,	 0.320384,	 2.354930 
3.075000,	 0.005817,	 0.350109,	 0.759133,	 0.002623,	 0.468932,	 0.025318,	 0.318184,	 2.385848 
3.125000,	 0.005923,	 0.338208,	 0.763563,	 0.002620,	 0.469904,	 0.024133,	 0.316063,	 2.415868 
3.175000,	 0.006029,	 0.327058,	 0.767778,	 0.002612,	 0.470833,	 0.023036,	 0.314021,	 2.445001 
3.225000,	 0.006135,	 0.316608,	 0.771787,	 0.002600,	 0.471721,	 0.022022,	 0.312055,	 2.473258 
3.275000,	 0.006241,	 0.306812,	 0.775602,	 0.002584,	 0.472569,	 0.021083,	 0.310163,	 2.500643 
3.325000,	 0.006347,	 0.297630,	 0.779228,	 0.002563,	 0.473380,	 0.020212,	 0.308344,	 2.527157 
3.375000,	 0.006454,	 0.289024,	 0.782675,	 0.002537,	 0.474153,	 0.019406,	 0.306597,	 2.552797 
3.425000,	 0.006560,	 0.280962,	 0.785947,	 0.002506,	 0.474890,	 0.018659,	 0.304921,	 2.577558 
3.475000,	 0.006665,	 0.273415,	 0.789051,	 0.002469,	 0.475590,	 0.017967,	 0.303316,	 2.601431 
3.525000,	 0.006771,	 0.266355,	 0.791991,	 0.002427,	 0.476256,	 0.017327,	 0.301781,	 2.624403 
3.575000,	 0.006877,	 0.259759,	 0.794771,	 0.002378,	 0.476887,	 0.016734,	 0.300316,	 2.646458 
3.625000,	 0.006984,	 0.253605,	 0.797395,	 0.002324,	 0.477483,	 0.016186,	 0.298922,	 2.667579 
3.675000,	 0.007090,	 0.247875,	 0.799865,	 0.002262,	 0.478046,	 0.015681,	 0.297598,	 2.687745 
3.725000,	 0.007196,	 0.242550,	 0.802185,	 0.002195,	 0.478575,	 0.015215,	 0.296345,	 2.706939 
3.775000,	 0.007302,	 0.237614,	 0.804357,	 0.002120,	 0.479070,	 0.014787,	 0.295163,	 2.725139 
3.825000,	 0.007408,	 0.233051,	 0.806383,	 0.002039,	 0.479533,	 0.014394,	 0.294051,	 2.742329 
3.875000,	 0.007514,	 0.228845,	 0.808267,	 0.001953,	 0.479963,	 0.014034,	 0.293011,	 2.758495 
3.925000,	 0.007620,	 0.224983,	 0.810011,	 0.001860,	 0.480360,	 0.013706,	 0.292041,	 2.773627 
3.975000,	 0.007726,	 0.221448,	 0.811618,	 0.001763,	 0.480727,	 0.013408,	 0.291141,	 2.787720 
4.025000,	 0.007832,	 0.218225,	 0.813094,	 0.001662,	 0.481062,	 0.013137,	 0.290310,	 2.800780 
4.075000,	 0.007939,	 0.215299,	 0.814442,	 0.001558,	 0.481369,	 0.012893,	 0.289547,	 2.812820 
4.125000,	 0.008044,	 0.212652,	 0.815668,	 0.001453,	 0.481647,	 0.012673,	 0.288849,	 2.823863 
4.175000,	 0.008151,	 0.210265,	 0.816778,	 0.001348,	 0.481898,	 0.012476,	 0.288213,	 2.833943 
4.225000,	 0.008257,	 0.208121,	 0.817780,	 0.001244,	 0.482124,	 0.012299,	 0.287637,	 2.843104 
4.275000,	 0.008363,	 0.206200,	 0.818682,	 0.001144,	 0.482327,	 0.012142,	 0.287116,	 2.851399 
4.325000,	 0.008469,	 0.204480,	 0.819492,	 0.001049,	 0.482509,	 0.012001,	 0.286647,	 2.858894 
4.375000,	 0.008575,	 0.202941,	 0.820219,	 0.000960,	 0.482673,	 0.011876,	 0.286224,	 2.865659 
4.425000,	 0.008681,	 0.201561,	 0.820873,	 0.000879,	 0.482819,	 0.011763,	 0.285842,	 2.871774 
4.475000,	 0.008787,	 0.200319,	 0.821464,	 0.000806,	 0.482952,	 0.011663,	 0.285496,	 2.877319 
4.525000,	 0.008893,	 0.199194,	 0.822001,	 0.000743,	 0.483073,	 0.011572,	 0.285182,	 2.882379 
4.575000,	 0.009000,	 0.198166,	 0.822495,	 0.000690,	 0.483184,	 0.011488,	 0.284892,	 2.887037 
4.625000,	 0.009105,	 0.197215,	 0.822953,	 0.000647,	 0.483288,	 0.011412,	 0.284624,	 2.891375 
4.675000,	 0.009212,	 0.196324,	 0.823386,	 0.000614,	 0.483387,	 0.011340,	 0.284370,	 2.895470 
4.725000,	 0.009317,	 0.195476,	 0.823799,	 0.000591,	 0.483482,	 0.011272,	 0.284128,	 2.899394 
4.775000,	 0.009424,	 0.194658,	 0.824202,	 0.000577,	 0.483575,	 0.011206,	 0.283893,	 2.903212 
4.825000,	 0.009529,	 0.193855,	 0.824599,	 0.000572,	 0.483667,	 0.011142,	 0.283661,	 2.906983 
4.875000,	 0.009636,	 0.193057,	 0.824995,	 0.000574,	 0.483760,	 0.011078,	 0.283430,	 2.910756 
4.925000,	 0.009742,	 0.192254,	 0.825396,	 0.000584,	 0.483854,	 0.011013,	 0.283196,	 2.914575 
4.975000,	 0.009848,	 0.191440,	 0.825805,	 0.000600,	 0.483951,	 0.010948,	 0.282958,	 2.918474 
0.025000,	 0.029332,	 2.492744,	 0.072637,	 -0.000157,	 0.386915,	 0.383161,	 0.463891,	 0.156583 
0.075000,	 0.028589,	 2.493548,	 0.073026,	 -0.000305,	 0.386971,	 0.383313,	 0.463908,	 0.157416 
0.125000,	 0.027847,	 2.494065,	 0.073689,	 -0.000446,	 0.387034,	 0.383406,	 0.463916,	 0.158845 
0.175000,	 0.027104,	 2.494291,	 0.074629,	 -0.000580,	 0.387103,	 0.383440,	 0.463916,	 0.160872 
0.225000,	 0.026362,	 2.494212,	 0.075848,	 -0.000707,	 0.387180,	 0.383413,	 0.463907,	 0.163505 
0.275000,	 0.025619,	 2.493814,	 0.077351,	 -0.000829,	 0.387265,	 0.383322,	 0.463889,	 0.166754 
0.325000,	 0.024876,	 2.493075,	 0.079144,	 -0.000946,	 0.387359,	 0.383162,	 0.463861,	 0.170633 
0.375000,	 0.024134,	 2.491971,	 0.081237,	 -0.001057,	 0.387463,	 0.382929,	 0.463822,	 0.175161 
0.425000,	 0.023391,	 2.490470,	 0.083639,	 -0.001165,	 0.387579,	 0.382617,	 0.463773,	 0.180361 
0.475000,	 0.022649,	 2.488534,	 0.086362,	 -0.001269,	 0.387708,	 0.382217,	 0.463711,	 0.186262 
0.525000,	 0.021906,	 2.486120,	 0.089424,	 -0.001369,	 0.387852,	 0.381722,	 0.463635,	 0.192899 
0.575000,	 0.021163,	 2.483172,	 0.092842,	 -0.001467,	 0.388012,	 0.381119,	 0.463544,	 0.200313 
0.625000,	 0.020421,	 2.479626,	 0.096640,	 -0.001563,	 0.388191,	 0.380395,	 0.463434,	 0.208557 
0.675000,	 0.019678,	 2.475402,	 0.100844,	 -0.001657,	 0.388392,	 0.379534,	 0.463305,	 0.217691 
0.725000,	 0.018936,	 2.470404,	 0.105487,	 -0.001750,	 0.388617,	 0.378517,	 0.463151,	 0.227790 
0.775000,	 0.018193,	 2.464516,	 0.110609,	 -0.001843,	 0.388871,	 0.377319,	 0.462970,	 0.238944 
0.825000,	 0.017450,	 2.457591,	 0.116256,	 -0.001935,	 0.389158,	 0.375911,	 0.462756,	 0.251261 
0.875000,	 0.016708,	 2.449451,	 0.122487,	 -0.002028,	 0.389483,	 0.374256,	 0.462502,	 0.264871 
0.925000,	 0.015965,	 2.439871,	 0.129370,	 -0.002122,	 0.389854,	 0.372308,	 0.462202,	 0.279936 
0.975000,	 0.015223,	 2.428567,	 0.136988,	 -0.002217,	 0.390278,	 0.370010,	 0.461844,	 0.296650 
1.025000,	 0.014480,	 2.415173,	 0.145446,	 -0.002313,	 0.390767,	 0.367287,	 0.461416,	 0.315256 
1.075000,	 0.013738,	 2.399221,	 0.154868,	 -0.002410,	 0.391332,	 0.364045,	 0.460900,	 0.336052 
1.125000,	 0.012995,	 2.380094,	 0.165411,	 -0.002506,	 0.391989,	 0.360161,	 0.460273,	 0.359418 
1.175000,	 0.012253,	 2.356969,	 0.177272,	 -0.002599,	 0.392757,	 0.355470,	 0.459503,	 0.385833 
1.225000,	 0.011510,	 2.328740,	 0.190698,	 -0.002685,	 0.393661,	 0.349753,	 0.458548,	 0.415915 
1.275000,	 0.010767,	 2.293882,	 0.206004,	 -0.002757,	 0.394730,	 0.342713,	 0.457345,	 0.450474 
1.325000,	 0.010025,	 2.250258,	 0.223595,	 -0.002800,	 0.395997,	 0.333935,	 0.455805,	 0.490588 
1.375000,	 0.009282,	 2.194827,	 0.243994,	 -0.002789,	 0.397500,	 0.322841,	 0.453793,	 0.537711 
1.425000,	 0.008540,	 2.123212,	 0.267862,	 -0.002677,	 0.399263,	 0.308617,	 0.451105,	 0.593820 
1.475000,	 0.007797,	 2.029279,	 0.295959,	 -0.002372,	 0.401275,	 0.290168,	 0.447423,	 0.661496 
1.525000,	 0.007585,	 1.910731,	 0.328997,	 -0.001927,	 0.403710,	 0.267188,	 0.442459,	 0.743577 
1.575000,	 0.007903,	 1.779757,	 0.363126,	 -0.001227,	 0.406266,	 0.242286,	 0.436564,	 0.831787 
1.625000,	 0.008221,	 1.644676,	 0.397186,	 -0.000376,	 0.409044,	 0.217206,	 0.429992,	 0.923706 
1.675000,	 0.008540,	 1.465400,	 0.445266,	 0.000182,	 0.414529,	 0.184874,	 0.420265,	 1.059488 
1.725000,	 0.008858,	 1.381554,	 0.467729,	 0.000768,	 0.417476,	 0.170257,	 0.415368,	 1.126062 
1.775000,	 0.009176,	 1.300445,	 0.489121,	 0.001374,	 0.420417,	 0.156468,	 0.410422,	 1.191757 
1.825000,	 0.009494,	 1.222827,	 0.509389,	 0.001980,	 0.423325,	 0.143601,	 0.405472,	 1.256297 
1.875000,	 0.009813,	 1.149269,	 0.528503,	 0.002571,	 0.426176,	 0.131713,	 0.400560,	 1.319426 
1.925000,	 0.010131,	 1.080091,	 0.546470,	 0.003133,	 0.428952,	 0.120811,	 0.395720,	 1.380974 
1.975000,	 0.010449,	 1.015407,	 0.563323,	 0.003661,	 0.431641,	 0.110870,	 0.390976,	 1.440843 
2.025000,	 0.010767,	 0.955185,	 0.579112,	 0.004151,	 0.434235,	 0.101838,	 0.386346,	 1.498987 
2.075000,	 0.011086,	 0.899292,	 0.593897,	 0.004602,	 0.436730,	 0.093657,	 0.381842,	 1.555396 
2.125000,	 0.011404,	 0.847525,	 0.607741,	 0.005014,	 0.439124,	 0.086257,	 0.377471,	 1.610088 
2.175000,	 0.011722,	 0.799648,	 0.620708,	 0.005387,	 0.441417,	 0.079569,	 0.373239,	 1.663094 
2.225000,	 0.012040,	 0.755404,	 0.632860,	 0.005725,	 0.443610,	 0.073527,	 0.369147,	 1.714458 
2.275000,	 0.012359,	 0.714531,	 0.644257,	 0.006028,	 0.445706,	 0.068067,	 0.365194,	 1.764230 
2.325000,	 0.012677,	 0.676769,	 0.654956,	 0.006299,	 0.447709,	 0.063130,	 0.361379,	 1.812465 
2.375000,	 0.012995,	 0.641870,	 0.665009,	 0.006542,	 0.449620,	 0.058662,	 0.357700,	 1.859217 
2.425000,	 0.013313,	 0.609599,	 0.674465,	 0.006757,	 0.451446,	 0.054613,	 0.354152,	 1.904545 
2.475000,	 0.013632,	 0.579736,	 0.683369,	 0.006948,	 0.453188,	 0.050940,	 0.350733,	 1.948502 
2.525000,	 0.013950,	 0.552078,	 0.691761,	 0.007116,	 0.454851,	 0.047602,	 0.347438,	 1.991141 
2.575000,	 0.014268,	 0.526437,	 0.699681,	 0.007263,	 0.456440,	 0.044565,	 0.344262,	 2.032515 
2.625000,	 0.014586,	 0.502643,	 0.707162,	 0.007391,	 0.457957,	 0.041798,	 0.341202,	 2.072673 
2.675000,	 0.014905,	 0.480540,	 0.714235,	 0.007501,	 0.459406,	 0.039272,	 0.338253,	 2.111659 
2.725000,	 0.015223,	 0.459985,	 0.720930,	 0.007595,	 0.460792,	 0.036963,	 0.335410,	 2.149519 
2.775000,	 0.015541,	 0.440849,	 0.727273,	 0.007674,	 0.462116,	 0.034849,	 0.332670,	 2.186293 
2.825000,	 0.015859,	 0.423017,	 0.733286,	 0.007739,	 0.463382,	 0.032910,	 0.330028,	 2.222015 
2.875000,	 0.016177,	 0.406384,	 0.738993,	 0.007790,	 0.464593,	 0.031130,	 0.327481,	 2.256721 
2.925000,	 0.016496,	 0.390854,	 0.744412,	 0.007828,	 0.465751,	 0.029493,	 0.325026,	 2.290441 
2.975000,	 0.016814,	 0.376342,	 0.749560,	 0.007854,	 0.466860,	 0.027986,	 0.322659,	 2.323201 
3.025000,	 0.017132,	 0.362770,	 0.754455,	 0.007867,	 0.467920,	 0.026597,	 0.320377,	 2.355025 
3.075000,	 0.017451,	 0.350067,	 0.759110,	 0.007869,	 0.468935,	 0.025314,	 0.318178,	 2.385933 
3.125000,	 0.017769,	 0.338172,	 0.763538,	 0.007858,	 0.469906,	 0.024129,	 0.316058,	 2.415941 
3.175000,	 0.018087,	 0.327029,	 0.767750,	 0.007835,	 0.470834,	 0.023034,	 0.314017,	 2.445060 
3.225000,	 0.018405,	 0.316586,	 0.771758,	 0.007798,	 0.471722,	 0.022020,	 0.312052,	 2.473301 
3.275000,	 0.018723,	 0.306797,	 0.775570,	 0.007749,	 0.472570,	 0.021081,	 0.310161,	 2.500668 
3.325000,	 0.019042,	 0.297623,	 0.779195,	 0.007685,	 0.473380,	 0.020212,	 0.308343,	 2.527161 
3.375000,	 0.019360,	 0.289025,	 0.782639,	 0.007607,	 0.474152,	 0.019406,	 0.306598,	 2.552778 
3.425000,	 0.019678,	 0.280971,	 0.785909,	 0.007514,	 0.474888,	 0.018660,	 0.304924,	 2.577514 
3.475000,	 0.019997,	 0.273433,	 0.789010,	 0.007403,	 0.475588,	 0.017969,	 0.303320,	 2.601357 
3.525000,	 0.020314,	 0.266382,	 0.791947,	 0.007276,	 0.476252,	 0.017329,	 0.301788,	 2.624297 
3.575000,	 0.020633,	 0.259796,	 0.794724,	 0.007130,	 0.476882,	 0.016737,	 0.300326,	 2.646316 
3.625000,	 0.020951,	 0.253653,	 0.797345,	 0.006966,	 0.477477,	 0.016191,	 0.298934,	 2.667397 
3.675000,	 0.021270,	 0.247934,	 0.799812,	 0.006781,	 0.478039,	 0.015686,	 0.297613,	 2.687521 
3.725000,	 0.021588,	 0.242620,	 0.802128,	 0.006578,	 0.478566,	 0.015221,	 0.296362,	 2.706670 
3.775000,	 0.021906,	 0.237695,	 0.804296,	 0.006354,	 0.479061,	 0.014794,	 0.295183,	 2.724822 
3.825000,	 0.022224,	 0.233142,	 0.806319,	 0.006112,	 0.479522,	 0.014402,	 0.294075,	 2.741964 
3.875000,	 0.022542,	 0.228948,	 0.808199,	 0.005851,	 0.479950,	 0.014043,	 0.293037,	 2.758080 
3.925000,	 0.022861,	 0.225096,	 0.809939,	 0.005574,	 0.480347,	 0.013716,	 0.292070,	 2.773163 
3.975000,	 0.023179,	 0.221570,	 0.811544,	 0.005282,	 0.480712,	 0.013418,	 0.291173,	 2.787211 
4.025000,	 0.023497,	 0.218356,	 0.813017,	 0.004979,	 0.481047,	 0.013148,	 0.290345,	 2.800229 
4.075000,	 0.023816,	 0.215436,	 0.814363,	 0.004668,	 0.481352,	 0.012904,	 0.289584,	 2.812233 
4.125000,	 0.024134,	 0.212794,	 0.815588,	 0.004354,	 0.481629,	 0.012685,	 0.288887,	 2.823247 
4.175000,	 0.024452,	 0.210411,	 0.816698,	 0.004040,	 0.481880,	 0.012488,	 0.288253,	 2.833306 
4.225000,	 0.024770,	 0.208268,	 0.817701,	 0.003731,	 0.482106,	 0.012311,	 0.287677,	 2.842455 
4.275000,	 0.025089,	 0.206345,	 0.818604,	 0.003432,	 0.482310,	 0.012154,	 0.287156,	 2.850751 
4.325000,	 0.025407,	 0.204621,	 0.819416,	 0.003148,	 0.482492,	 0.012013,	 0.286686,	 2.858257 
4.375000,	 0.025725,	 0.203076,	 0.820147,	 0.002883,	 0.482656,	 0.011887,	 0.286261,	 2.865045 
4.425000,	 0.026043,	 0.201688,	 0.820806,	 0.002641,	 0.482804,	 0.011774,	 0.285878,	 2.871192 
4.475000,	 0.026361,	 0.200436,	 0.821402,	 0.002425,	 0.482938,	 0.011672,	 0.285530,	 2.876779 
4.525000,	 0.026680,	 0.199300,	 0.821946,	 0.002236,	 0.483060,	 0.011580,	 0.285212,	 2.881889 
4.575000,	 0.026998,	 0.198259,	 0.822446,	 0.002078,	 0.483173,	 0.011496,	 0.284919,	 2.886603 
4.625000,	 0.027316,	 0.197295,	 0.822911,	 0.001949,	 0.483278,	 0.011418,	 0.284647,	 2.891002 
4.675000,	 0.027634,	 0.196390,	 0.823351,	 0.001851,	 0.483379,	 0.011345,	 0.284389,	 2.895160 
4.725000,	 0.027953,	 0.195528,	 0.823771,	 0.001782,	 0.483475,	 0.011276,	 0.284143,	 2.899148 
4.775000,	 0.028271,	 0.194695,	 0.824180,	 0.001740,	 0.483570,	 0.011209,	 0.283904,	 2.903029 
4.825000,	 0.028589,	 0.193879,	 0.824584,	 0.001725,	 0.483663,	 0.011144,	 0.283669,	 2.906860 
4.875000,	 0.028907,	 0.193069,	 0.824986,	 0.001733,	 0.483758,	 0.011079,	 0.283434,	 2.910691 
4.925000,	 0.029226,	 0.192255,	 0.825393,	 0.001761,	 0.483853,	 0.011014,	 0.283197,	 2.914563 
4.975000,	 0.029544,	 0.191430,	 0.825807,	 0.001808,	 0.483951,	 0.010948,	 0.282956,	 2.918511 
0.025000,	 0.048886,	 2.492834,	 0.072619,	 -0.000261,	 0.386916,	 0.383178,	 0.463893,	 0.156545 
0.075000,	 0.047649,	 2.493632,	 0.073009,	 -0.000509,	 0.386973,	 0.383329,	 0.463910,	 0.157381 
0.125000,	 0.046411,	 2.494145,	 0.073673,	 -0.000743,	 0.387035,	 0.383421,	 0.463918,	 0.158814 
0.175000,	 0.045173,	 2.494366,	 0.074613,	 -0.000966,	 0.387104,	 0.383454,	 0.463917,	 0.160845 
0.225000,	 0.043936,	 2.494284,	 0.075832,	 -0.001179,	 0.387181,	 0.383426,	 0.463908,	 0.163483 
0.275000,	 0.042698,	 2.493881,	 0.077335,	 -0.001382,	 0.387266,	 0.383334,	 0.463890,	 0.166736 
0.325000,	 0.041460,	 2.493139,	 0.079128,	 -0.001576,	 0.387360,	 0.383174,	 0.463862,	 0.170620 
0.375000,	 0.040223,	 2.492032,	 0.081221,	 -0.001762,	 0.387464,	 0.382940,	 0.463823,	 0.175152 
0.425000,	 0.038985,	 2.490528,	 0.083622,	 -0.001941,	 0.387581,	 0.382627,	 0.463774,	 0.180357 
0.475000,	 0.037748,	 2.488590,	 0.086346,	 -0.002114,	 0.387710,	 0.382227,	 0.463712,	 0.186261 
0.525000,	 0.036510,	 2.486174,	 0.089407,	 -0.002282,	 0.387853,	 0.381731,	 0.463636,	 0.192901 
0.575000,	 0.035272,	 2.483224,	 0.092824,	 -0.002445,	 0.388014,	 0.381128,	 0.463544,	 0.200318 
0.625000,	 0.034035,	 2.479676,	 0.096621,	 -0.002604,	 0.388193,	 0.380404,	 0.463435,	 0.208564 
0.675000,	 0.032797,	 2.475451,	 0.100824,	 -0.002761,	 0.388393,	 0.379543,	 0.463305,	 0.217700 
0.725000,	 0.031560,	 2.470452,	 0.105466,	 -0.002916,	 0.388619,	 0.378525,	 0.463152,	 0.227801 
0.775000,	 0.030322,	 2.464563,	 0.110587,	 -0.003071,	 0.388872,	 0.377327,	 0.462970,	 0.238956 
0.825000,	 0.029084,	 2.457638,	 0.116233,	 -0.003225,	 0.389159,	 0.375919,	 0.462756,	 0.251272 
0.875000,	 0.027846,	 2.449499,	 0.122463,	 -0.003380,	 0.389485,	 0.374264,	 0.462503,	 0.264883 
0.925000,	 0.026609,	 2.439920,	 0.129344,	 -0.003537,	 0.389855,	 0.372316,	 0.462203,	 0.279947 
0.975000,	 0.025371,	 2.428616,	 0.136962,	 -0.003695,	 0.390280,	 0.370018,	 0.461845,	 0.296661 
1.025000,	 0.024134,	 2.415224,	 0.145418,	 -0.003855,	 0.390768,	 0.367295,	 0.461417,	 0.315266 
1.075000,	 0.022896,	 2.399273,	 0.154839,	 -0.004016,	 0.391333,	 0.364054,	 0.460900,	 0.336062 
1.125000,	 0.021659,	 2.380146,	 0.165382,	 -0.004176,	 0.391991,	 0.360170,	 0.460273,	 0.359427 
1.175000,	 0.020421,	 2.357023,	 0.177243,	 -0.004332,	 0.392759,	 0.355479,	 0.459504,	 0.385843 
1.225000,	 0.019183,	 2.328793,	 0.190670,	 -0.004475,	 0.393664,	 0.349763,	 0.458548,	 0.415928 
1.275000,	 0.017945,	 2.293930,	 0.205979,	 -0.004595,	 0.394733,	 0.342721,	 0.457345,	 0.450491 
1.325000,	 0.016708,	 2.250297,	 0.223575,	 -0.004666,	 0.396001,	 0.333942,	 0.455805,	 0.490612 
1.375000,	 0.015470,	 2.194848,	 0.243982,	 -0.004649,	 0.397504,	 0.322844,	 0.453793,	 0.537748 
1.425000,	 0.014233,	 2.123196,	 0.267865,	 -0.004463,	 0.399269,	 0.308613,	 0.451104,	 0.593882 
1.475000,	 0.012995,	 2.029186,	 0.295986,	 -0.003955,	 0.401282,	 0.290150,	 0.447419,	 0.661601 
1.525000,	 0.012641,	 1.910471,	 0.329061,	 -0.003211,	 0.403718,	 0.267139,	 0.442448,	 0.743763 
1.575000,	 0.013172,	 1.779388,	 0.363212,	 -0.002045,	 0.406274,	 0.242218,	 0.436548,	 0.832023 
1.625000,	 0.013702,	 1.644227,	 0.397290,	 -0.000626,	 0.409054,	 0.217126,	 0.429971,	 0.923992 
1.675000,	 0.014233,	 1.465086,	 0.445339,	 0.000305,	 0.414538,	 0.184820,	 0.420250,	 1.059701 
1.725000,	 0.014763,	 1.381212,	 0.467806,	 0.001282,	 0.417486,	 0.170201,	 0.415350,	 1.126297 
1.775000,	 0.015294,	 1.300077,	 0.489200,	 0.002292,	 0.420428,	 0.156408,	 0.410402,	 1.192015 
1.825000,	 0.015824,	 1.222441,	 0.509468,	 0.003303,	 0.423337,	 0.143541,	 0.405450,	 1.256575 
1.875000,	 0.016354,	 1.148876,	 0.528579,	 0.004287,	 0.426189,	 0.131653,	 0.400537,	 1.319719 
1.925000,	 0.016885,	 1.079695,	 0.546541,	 0.005225,	 0.428966,	 0.120752,	 0.395696,	 1.381279 
1.975000,	 0.017415,	 1.015016,	 0.563389,	 0.006105,	 0.431655,	 0.110813,	 0.390951,	 1.441156 
2.025000,	 0.017946,	 0.954803,	 0.579171,	 0.006922,	 0.434250,	 0.101784,	 0.386320,	 1.499306 
2.075000,	 0.018476,	 0.898920,	 0.593949,	 0.007673,	 0.436745,	 0.093605,	 0.381816,	 1.555721 
2.125000,	 0.019006,	 0.847168,	 0.607786,	 0.008359,	 0.439139,	 0.086208,	 0.377445,	 1.610415 
2.175000,	 0.019537,	 0.799308,	 0.620746,	 0.008981,	 0.441431,	 0.079524,	 0.373213,	 1.663422 
2.225000,	 0.020067,	 0.755079,	 0.632891,	 0.009543,	 0.443624,	 0.073485,	 0.369120,	 1.714786 
2.275000,	 0.020598,	 0.714223,	 0.644281,	 0.010049,	 0.445720,	 0.068029,	 0.365168,	 1.764557 
2.325000,	 0.021128,	 0.676477,	 0.654973,	 0.010501,	 0.447722,	 0.063094,	 0.361353,	 1.812789 
2.375000,	 0.021659,	 0.641595,	 0.665020,	 0.010905,	 0.449634,	 0.058628,	 0.357674,	 1.859540 
2.425000,	 0.022189,	 0.609340,	 0.674470,	 0.011263,	 0.451458,	 0.054582,	 0.354127,	 1.904863 
2.475000,	 0.022719,	 0.579493,	 0.683368,	 0.011581,	 0.453200,	 0.050911,	 0.350709,	 1.948815 
2.525000,	 0.023250,	 0.551849,	 0.691756,	 0.011861,	 0.454863,	 0.047576,	 0.347414,	 1.991449 
2.575000,	 0.023780,	 0.526224,	 0.699671,	 0.012105,	 0.456451,	 0.044541,	 0.344239,	 2.032816 
2.625000,	 0.024310,	 0.502444,	 0.707147,	 0.012318,	 0.457968,	 0.041776,	 0.341180,	 2.072967 
2.675000,	 0.024841,	 0.480354,	 0.714216,	 0.012502,	 0.459417,	 0.039252,	 0.338231,	 2.111946 
2.725000,	 0.025371,	 0.459812,	 0.720907,	 0.012659,	 0.460801,	 0.036945,	 0.335389,	 2.149797 
2.775000,	 0.025902,	 0.440690,	 0.727246,	 0.012790,	 0.462125,	 0.034832,	 0.332650,	 2.186559 
2.825000,	 0.026432,	 0.422870,	 0.733256,	 0.012897,	 0.463391,	 0.032895,	 0.330009,	 2.222271 
2.875000,	 0.026963,	 0.406250,	 0.738959,	 0.012982,	 0.464601,	 0.031117,	 0.327464,	 2.256963 
2.925000,	 0.027493,	 0.390732,	 0.744374,	 0.013045,	 0.465759,	 0.029481,	 0.325009,	 2.290668 
2.975000,	 0.028024,	 0.376232,	 0.749520,	 0.013088,	 0.466866,	 0.027975,	 0.322644,	 2.323412 
3.025000,	 0.028554,	 0.362672,	 0.754411,	 0.013110,	 0.467926,	 0.026587,	 0.320363,	 2.355217 
3.075000,	 0.029084,	 0.349983,	 0.759062,	 0.013111,	 0.468940,	 0.025306,	 0.318165,	 2.386103 
3.125000,	 0.029615,	 0.338101,	 0.763487,	 0.013093,	 0.469910,	 0.024123,	 0.316048,	 2.416086 
3.175000,	 0.030145,	 0.326971,	 0.767696,	 0.013053,	 0.470837,	 0.023028,	 0.314009,	 2.445177 
3.225000,	 0.030675,	 0.316541,	 0.771700,	 0.012992,	 0.471724,	 0.022016,	 0.312045,	 2.473386 
3.275000,	 0.031206,	 0.306768,	 0.775508,	 0.012908,	 0.472571,	 0.021079,	 0.310157,	 2.500716 
3.325000,	 0.031736,	 0.297608,	 0.779128,	 0.012801,	 0.473379,	 0.020211,	 0.308342,	 2.527168 
3.375000,	 0.032267,	 0.289026,	 0.782567,	 0.012670,	 0.474150,	 0.019407,	 0.306600,	 2.552739 
3.425000,	 0.032797,	 0.280990,	 0.785832,	 0.012512,	 0.474884,	 0.018662,	 0.304930,	 2.577422 
3.475000,	 0.033328,	 0.273469,	 0.788928,	 0.012327,	 0.475582,	 0.017973,	 0.303330,	 2.601207 
3.525000,	 0.033858,	 0.266437,	 0.791859,	 0.012113,	 0.476245,	 0.017334,	 0.301802,	 2.624081 
3.575000,	 0.034388,	 0.259872,	 0.794630,	 0.011868,	 0.476872,	 0.016744,	 0.300344,	 2.646027 
3.625000,	 0.034919,	 0.253749,	 0.797244,	 0.011592,	 0.477465,	 0.016199,	 0.298957,	 2.667030 
3.675000,	 0.035449,	 0.248051,	 0.799704,	 0.011284,	 0.478024,	 0.015696,	 0.297642,	 2.687069 
3.725000,	 0.035979,	 0.242760,	 0.802013,	 0.010943,	 0.478549,	 0.015233,	 0.296397,	 2.706127 
3.775000,	 0.036510,	 0.237857,	 0.804174,	 0.010569,	 0.479041,	 0.014808,	 0.295223,	 2.724185 
3.825000,	 0.037040,	 0.233326,	 0.806189,	 0.010164,	 0.479499,	 0.014417,	 0.294121,	 2.741230 
3.875000,	 0.037571,	 0.229153,	 0.808062,	 0.009729,	 0.479925,	 0.014060,	 0.293090,	 2.757248 
3.925000,	 0.038101,	 0.225321,	 0.809796,	 0.009267,	 0.480319,	 0.013735,	 0.292129,	 2.772236 
3.975000,	 0.038631,	 0.221815,	 0.811395,	 0.008782,	 0.480682,	 0.013439,	 0.291237,	 2.786192 
4.025000,	 0.039162,	 0.218617,	 0.812863,	 0.008278,	 0.481015,	 0.013170,	 0.290414,	 2.799128 
4.075000,	 0.039692,	 0.215710,	 0.814206,	 0.007763,	 0.481319,	 0.012927,	 0.289657,	 2.811061 
4.125000,	 0.040223,	 0.213078,	 0.815428,	 0.007242,	 0.481595,	 0.012709,	 0.288964,	 2.822018 
4.175000,	 0.040753,	 0.210701,	 0.816538,	 0.006722,	 0.481845,	 0.012512,	 0.288331,	 2.832038 
4.225000,	 0.041284,	 0.208559,	 0.817542,	 0.006212,	 0.482071,	 0.012335,	 0.287757,	 2.841168 
4.275000,	 0.041814,	 0.206633,	 0.818448,	 0.005719,	 0.482275,	 0.012177,	 0.287236,	 2.849465 
4.325000,	 0.042345,	 0.204902,	 0.819266,	 0.005251,	 0.482458,	 0.012036,	 0.286764,	 2.856995 
4.375000,	 0.042875,	 0.203345,	 0.820004,	 0.004815,	 0.482624,	 0.011909,	 0.286337,	 2.863827 
4.425000,	 0.043405,	 0.201941,	 0.820672,	 0.004417,	 0.482773,	 0.011794,	 0.285949,	 2.870039 
4.475000,	 0.043936,	 0.200669,	 0.821279,	 0.004061,	 0.482910,	 0.011691,	 0.285595,	 2.875709 
4.525000,	 0.044466,	 0.199509,	 0.821835,	 0.003751,	 0.483035,	 0.011597,	 0.285271,	 2.880918 
4.575000,	 0.044996,	 0.198443,	 0.822348,	 0.003490,	 0.483150,	 0.011511,	 0.284972,	 2.885743 
4.625000,	 0.045527,	 0.197452,	 0.822827,	 0.003279,	 0.483259,	 0.011431,	 0.284692,	 2.890261 
4.675000,	 0.046057,	 0.196520,	 0.823280,	 0.003117,	 0.483362,	 0.011356,	 0.284427,	 2.894544 
4.725000,	 0.046588,	 0.195630,	 0.823715,	 0.003002,	 0.483462,	 0.011284,	 0.284173,	 2.898658 
4.775000,	 0.047118,	 0.194770,	 0.824137,	 0.002933,	 0.483559,	 0.011215,	 0.283926,	 2.902663 
4.825000,	 0.047648,	 0.193928,	 0.824553,	 0.002906,	 0.483656,	 0.011148,	 0.283683,	 2.906615 
4.875000,	 0.048179,	 0.193093,	 0.824968,	 0.002918,	 0.483753,	 0.011081,	 0.283441,	 2.910559 
4.925000,	 0.048709,	 0.192256,	 0.825385,	 0.002964,	 0.483851,	 0.011014,	 0.283198,	 2.914536 
4.975000,	 0.049240,	 0.191411,	 0.825809,	 0.003040,	 0.483951,	 0.010946,	 0.282951,	 2.918580 
0.025000,	 0.068441,	 2.492969,	 0.072593,	 -0.000366,	 0.386918,	 0.383203,	 0.463895,	 0.156488 
0.075000,	 0.066708,	 2.493760,	 0.072983,	 -0.000712,	 0.386975,	 0.383352,	 0.463912,	 0.157329 
0.125000,	 0.064975,	 2.494265,	 0.073648,	 -0.001040,	 0.387037,	 0.383443,	 0.463920,	 0.158768 