TITLE = "Final State"
VARIABLES = "X", "Y", "rho", "u", "v", "e", "p", "c", "M"
ZONE I=100, J=200, DATAPACKING=POINT
0.020000,	 0.002500,	 1.044084,	 0.142678,	 0.009246,	 0.634548,	 0.260740,	 0.591289,	 0.241806 
0.060000,	 0.002500,	 0.903712,	 0.117101,	 0.004345,	 0.697255,	 0.249565,	 0.621786,	 0.188459 
0.100000,	 0.002500,	 0.830293,	 0.102121,	 0.002943,	 0.728197,	 0.240114,	 0.636292,	 0.160560 
0.140000,	 0.002500,	 0.783990,	 0.090847,	 0.002211,	 0.745468,	 0.232481,	 0.644321,	 0.141038 
0.180000,	 0.002500,	 0.750152,	 0.082287,	 0.001746,	 0.756625,	 0.226017,	 0.649472,	 0.126727 
0.220000,	 0.002500,	 0.724394,	 0.075689,	 0.001389,	 0.765003,	 0.220835,	 0.653297,	 0.115876 
0.260000,	 0.002500,	 0.702981,	 0.070621,	 0.001146,	 0.771944,	 0.216363,	 0.656424,	 0.107598 
0.300000,	 0.002500,	 0.684686,	 0.066599,	 0.000961,	 0.778250,	 0.212535,	 0.659225,	 0.101037 
0.340000,	 0.002500,	 0.668679,	 0.063370,	 0.000814,	 0.784311,	 0.209244,	 0.661883,	 0.095750 
0.380000,	 0.002500,	 0.654184,	 0.060744,	 0.000705,	 0.790247,	 0.206304,	 0.664459,	 0.091424 
0.420000,	 0.002500,	 0.640984,	 0.058544,	 0.000619,	 0.796116,	 0.203680,	 0.666982,	 0.087779 
0.460000,	 0.002500,	 0.628972,	 0.056663,	 0.000549,	 0.801868,	 0.201337,	 0.669438,	 0.084647 
0.500000,	 0.002500,	 0.618092,	 0.055030,	 0.000491,	 0.807386,	 0.199241,	 0.671780,	 0.081920 
0.540000,	 0.002500,	 0.608296,	 0.053594,	 0.000446,	 0.812513,	 0.197350,	 0.673946,	 0.079525 
0.580000,	 0.002500,	 0.599535,	 0.052309,	 0.000411,	 0.817090,	 0.195621,	 0.675873,	 0.077398 
0.620000,	 0.002500,	 0.591817,	 0.051138,	 0.000384,	 0.820993,	 0.194041,	 0.677513,	 0.075481 
0.660000,	 0.002500,	 0.585121,	 0.050058,	 0.000362,	 0.824127,	 0.192592,	 0.678829,	 0.073743 
0.700000,	 0.002500,	 0.579401,	 0.049051,	 0.000346,	 0.826442,	 0.191258,	 0.679804,	 0.072157 
0.740000,	 0.002500,	 0.574596,	 0.048108,	 0.000333,	 0.827937,	 0.190026,	 0.680439,	 0.070703 
0.780000,	 0.002500,	 0.570631,	 0.047220,	 0.000324,	 0.828657,	 0.188889,	 0.680752,	 0.069366 
0.820000,	 0.002500,	 0.567412,	 0.046385,	 0.000317,	 0.828680,	 0.187837,	 0.680778,	 0.068136 
0.860000,	 0.002500,	 0.564844,	 0.045599,	 0.000313,	 0.828114,	 0.186867,	 0.680560,	 0.067003 
0.900000,	 0.002500,	 0.562840,	 0.044862,	 0.000309,	 0.827089,	 0.185981,	 0.680152,	 0.065960 
0.940000,	 0.002500,	 0.561316,	 0.044176,	 0.000307,	 0.825739,	 0.185181,	 0.679608,	 0.065003 
0.980000,	 0.002500,	 0.560193,	 0.043544,	 0.000306,	 0.824195,	 0.184471,	 0.678983,	 0.064132 
1.020000,	 0.002500,	 0.559401,	 0.042969,	 0.000305,	 0.822577,	 0.183854,	 0.678326,	 0.063348 
1.060000,	 0.002500,	 0.558879,	 0.042456,	 0.000305,	 0.820987,	 0.183332,	 0.677678,	 0.062650 
1.100000,	 0.002500,	 0.558578,	 0.042005,	 0.000305,	 0.819507,	 0.182906,	 0.677075,	 0.062041 
1.140000,	 0.002500,	 0.558456,	 0.041618,	 0.000307,	 0.818198,	 0.182578,	 0.676540,	 0.061518 
1.180000,	 0.002500,	 0.558482,	 0.041294,	 0.000308,	 0.817099,	 0.182343,	 0.676090,	 0.061080 
1.220000,	 0.002500,	 0.558631,	 0.041028,	 0.000309,	 0.816226,	 0.182200,	 0.675733,	 0.060717 
1.260000,	 0.002500,	 0.558892,	 0.040808,	 0.000311,	 0.815584,	 0.182143,	 0.675471,	 0.060416 
1.300000,	 0.002500,	 0.559265,	 0.040618,	 0.000313,	 0.815160,	 0.182172,	 0.675298,	 0.060149 
1.340000,	 0.002500,	 0.559777,	 0.040423,	 0.000315,	 0.814940,	 0.182291,	 0.675210,	 0.059870 
1.380000,	 0.002500,	 0.560498,	 0.040170,	 0.000317,	 0.814906,	 0.182520,	 0.675200,	 0.059496 
1.420000,	 0.002500,	 0.561573,	 0.039765,	 0.000321,	 0.815054,	 0.182907,	 0.675268,	 0.058889 
1.460000,	 0.002500,	 0.563279,	 0.039052,	 0.000327,	 0.815397,	 0.183547,	 0.675422,	 0.057821 
1.500000,	 0.002500,	 0.566105,	 0.037794,	 0.000336,	 0.815989,	 0.184613,	 0.675688,	 0.055936 
1.540000,	 0.002500,	 0.570850,	 0.035649,	 0.000346,	 0.816953,	 0.186398,	 0.676120,	 0.052729 
1.580000,	 0.002500,	 0.578703,	 0.032222,	 0.000352,	 0.818518,	 0.189351,	 0.676815,	 0.047612 
1.620000,	 0.002500,	 0.591180,	 0.027203,	 0.000342,	 0.821033,	 0.194064,	 0.677917,	 0.040130 
1.660000,	 0.002500,	 0.609794,	 0.020602,	 0.000303,	 0.824891,	 0.201154,	 0.679573,	 0.030319 
1.700000,	 0.002500,	 0.635537,	 0.012935,	 0.000228,	 0.830302,	 0.211054,	 0.681852,	 0.018973 
1.740000,	 0.002500,	 0.668240,	 0.005105,	 0.000137,	 0.836862,	 0.223686,	 0.684570,	 0.007460 
1.780000,	 0.002500,	 0.706751,	 -0.002001,	 0.000054,	 0.843412,	 0.238432,	 0.687248,	 0.002912 
1.820000,	 0.002500,	 0.749524,	 -0.007883,	 0.000003,	 0.848111,	 0.254263,	 0.689148,	 0.011439 
1.860000,	 0.002500,	 0.795230,	 -0.012621,	 0.000012,	 0.848869,	 0.269993,	 0.689436,	 0.018306 
1.900000,	 0.002500,	 0.842781,	 -0.017061,	 0.000168,	 0.844132,	 0.284518,	 0.687483,	 0.024817 
1.940000,	 0.002500,	 0.892547,	 -0.023283,	 0.000690,	 0.834284,	 0.297758,	 0.683409,	 0.034084 
1.980000,	 0.002500,	 0.961801,	 -0.032246,	 0.001134,	 0.824918,	 0.317163,	 0.679458,	 0.047488 
2.020000,	 0.012488,	 1.114078,	 -0.028924,	 -0.013339,	 0.827814,	 0.368674,	 0.680656,	 0.046796 
2.060000,	 0.032462,	 1.252619,	 -0.021013,	 -0.009999,	 0.827629,	 0.414546,	 0.680677,	 0.034188 
2.100000,	 0.052437,	 1.365100,	 -0.013137,	 -0.006175,	 0.826131,	 0.451043,	 0.680128,	 0.021343 
2.140000,	 0.072413,	 1.460677,	 -0.006423,	 -0.002920,	 0.826299,	 0.482768,	 0.680230,	 0.010373 
2.180000,	 0.092387,	 1.539480,	 -0.000501,	 -0.000061,	 0.828543,	 0.510210,	 0.681164,	 0.000741 
2.220000,	 0.112363,	 1.600777,	 0.004833,	 0.002509,	 0.832728,	 0.533195,	 0.682876,	 0.007974 
2.260000,	 0.132338,	 1.644257,	 0.009653,	 0.004831,	 0.838538,	 0.551470,	 0.685236,	 0.015752 
2.300000,	 0.152313,	 1.670516,	 0.013953,	 0.006912,	 0.845594,	 0.564950,	 0.688088,	 0.022629 
2.340000,	 0.172287,	 1.681287,	 0.017696,	 0.008734,	 0.853528,	 0.573880,	 0.691279,	 0.028548 
2.380000,	 0.192263,	 1.679193,	 0.020851,	 0.010283,	 0.862004,	 0.578807,	 0.694673,	 0.033467 
2.420000,	 0.212238,	 1.667288,	 0.023410,	 0.011552,	 0.870717,	 0.580467,	 0.698148,	 0.037392 
2.460000,	 0.232212,	 1.648610,	 0.025399,	 0.012549,	 0.879396,	 0.579648,	 0.701596,	 0.040379 
2.500000,	 0.252188,	 1.625847,	 0.026867,	 0.013295,	 0.887799,	 0.577078,	 0.704923,	 0.042524 
2.540000,	 0.272162,	 1.601186,	 0.027879,	 0.013817,	 0.895719,	 0.573375,	 0.708048,	 0.043945 
2.580000,	 0.292137,	 1.576269,	 0.028505,	 0.014151,	 0.902982,	 0.569018,	 0.710905,	 0.044766 
2.620000,	 0.312113,	 1.552261,	 0.028818,	 0.014328,	 0.909461,	 0.564367,	 0.713448,	 0.045110 
2.660000,	 0.332087,	 1.529894,	 0.028884,	 0.014382,	 0.915069,	 0.559665,	 0.715644,	 0.045087 
2.700000,	 0.352063,	 1.509599,	 0.028760,	 0.014339,	 0.919770,	 0.555082,	 0.717483,	 0.044791 
2.740000,	 0.372038,	 1.491542,	 0.028496,	 0.014226,	 0.923569,	 0.550714,	 0.718968,	 0.044299 
2.780000,	 0.392012,	 1.475744,	 0.028132,	 0.014060,	 0.926512,	 0.546626,	 0.720118,	 0.043673 
2.820000,	 0.411988,	 1.462091,	 0.027701,	 0.013860,	 0.928676,	 0.542843,	 0.720965,	 0.042963 
2.860000,	 0.431963,	 1.450412,	 0.027228,	 0.013637,	 0.930160,	 0.539377,	 0.721547,	 0.042203 
2.900000,	 0.451937,	 1.440496,	 0.026732,	 0.013401,	 0.931076,	 0.536227,	 0.721909,	 0.041423 
2.940000,	 0.471913,	 1.432125,	 0.026230,	 0.013160,	 0.931542,	 0.533387,	 0.722096,	 0.040640 
2.980000,	 0.491888,	 1.425087,	 0.025731,	 0.012920,	 0.931670,	 0.530848,	 0.722152,	 0.039870 
3.020000,	 0.511863,	 1.419185,	 0.025243,	 0.012685,	 0.931565,	 0.528599,	 0.722117,	 0.039122 
3.060000,	 0.531837,	 1.414255,	 0.024772,	 0.012457,	 0.931317,	 0.526631,	 0.722027,	 0.038403 
3.100000,	 0.551813,	 1.410150,	 0.024323,	 0.012240,	 0.931003,	 0.524932,	 0.721910,	 0.037718 
3.140000,	 0.571788,	 1.406758,	 0.023896,	 0.012033,	 0.930681,	 0.523496,	 0.721790,	 0.037068 
3.180000,	 0.591762,	 1.403978,	 0.023494,	 0.011839,	 0.930396,	 0.522308,	 0.721684,	 0.036454 
3.220000,	 0.611738,	 1.401747,	 0.023116,	 0.011657,	 0.930179,	 0.521362,	 0.721604,	 0.035878 
3.260000,	 0.631713,	 1.399997,	 0.022763,	 0.011488,	 0.930051,	 0.520645,	 0.721558,	 0.035337 
3.300000,	 0.651687,	 1.398693,	 0.022434,	 0.011329,	 0.930021,	 0.520149,	 0.721550,	 0.034831 
3.340000,	 0.671663,	 1.397796,	 0.022127,	 0.011183,	 0.930096,	 0.519862,	 0.721583,	 0.034358 
3.380000,	 0.691638,	 1.397269,	 0.021840,	 0.011046,	 0.930272,	 0.519769,	 0.721654,	 0.033915 
3.420000,	 0.711612,	 1.397112,	 0.021574,	 0.010920,	 0.930550,	 0.519870,	 0.721765,	 0.033501 
3.460000,	 0.731587,	 1.397277,	 0.021326,	 0.010803,	 0.930921,	 0.520142,	 0.721911,	 0.033115 
3.500000,	 0.751563,	 1.397776,	 0.021096,	 0.010694,	 0.931383,	 0.520589,	 0.722093,	 0.032754 
3.540000,	 0.771537,	 1.398564,	 0.020882,	 0.010594,	 0.931926,	 0.521190,	 0.722305,	 0.032417 
3.580000,	 0.791513,	 1.399648,	 0.020684,	 0.010501,	 0.932546,	 0.521944,	 0.722548,	 0.032105 
3.620000,	 0.811488,	 1.400980,	 0.020503,	 0.010416,	 0.933234,	 0.522829,	 0.722816,	 0.031816 
3.660000,	 0.831462,	 1.402562,	 0.020338,	 0.010339,	 0.933985,	 0.523843,	 0.723109,	 0.031551 
3.700000,	 0.851437,	 1.404333,	 0.020191,	 0.010269,	 0.934789,	 0.524958,	 0.723421,	 0.031313 
3.740000,	 0.871413,	 1.406267,	 0.020062,	 0.010208,	 0.935641,	 0.526162,	 0.723752,	 0.031102 
3.780000,	 0.891388,	 1.408291,	 0.019954,	 0.010157,	 0.936530,	 0.527421,	 0.724097,	 0.030921 
3.820000,	 0.911363,	 1.410343,	 0.019870,	 0.010116,	 0.937451,	 0.528711,	 0.724454,	 0.030778 
3.860000,	 0.931337,	 1.412310,	 0.019815,	 0.010088,	 0.938392,	 0.529980,	 0.724818,	 0.030676 
3.900000,	 0.951313,	 1.414091,	 0.019793,	 0.010074,	 0.939338,	 0.531184,	 0.725184,	 0.030626 
3.940000,	 0.971287,	 1.415574,	 0.019812,	 0.010079,	 0.940242,	 0.532253,	 0.725532,	 0.030638 
3.980000,	 0.991262,	 1.416708,	 0.019884,	 0.010105,	 0.940950,	 0.533080,	 0.725805,	 0.030731 
0.020000,	 0.007525,	 1.058333,	 0.382097,	 0.023538,	 0.676671,	 0.255437,	 0.581293,	 0.658568 
0.060000,	 0.007525,	 0.947225,	 0.334652,	 0.014877,	 0.720340,	 0.251671,	 0.609894,	 0.549247 
0.100000,	 0.007525,	 0.866191,	 0.294616,	 0.010935,	 0.742107,	 0.242065,	 0.625494,	 0.471338 
0.140000,	 0.007525,	 0.811639,	 0.262891,	 0.008243,	 0.754957,	 0.233871,	 0.635142,	 0.414112 
0.180000,	 0.007525,	 0.771910,	 0.238848,	 0.006423,	 0.763708,	 0.226992,	 0.641632,	 0.372385 
0.220000,	 0.007525,	 0.742169,	 0.220336,	 0.005061,	 0.770560,	 0.221544,	 0.646462,	 0.340923 
0.260000,	 0.007525,	 0.717992,	 0.206053,	 0.004128,	 0.776449,	 0.216894,	 0.650322,	 0.316911 
0.300000,	 0.007525,	 0.697729,	 0.194721,	 0.003433,	 0.781965,	 0.212947,	 0.653667,	 0.297937 
0.340000,	 0.007525,	 0.680276,	 0.185588,	 0.002890,	 0.787398,	 0.209572,	 0.656732,	 0.282628 
0.380000,	 0.007525,	 0.664677,	 0.178135,	 0.002488,	 0.792830,	 0.206571,	 0.659620,	 0.270083 
0.420000,	 0.007525,	 0.650602,	 0.171900,	 0.002172,	 0.798291,	 0.203902,	 0.662395,	 0.259534 
0.460000,	 0.007525,	 0.637867,	 0.166579,	 0.001919,	 0.803718,	 0.201526,	 0.665065,	 0.250487 
0.500000,	 0.007525,	 0.626367,	 0.161961,	 0.001713,	 0.808993,	 0.199404,	 0.667600,	 0.242615 
0.540000,	 0.007525,	 0.616018,	 0.157893,	 0.001548,	 0.813952,	 0.197492,	 0.669949,	 0.235690 
0.580000,	 0.007525,	 0.606750,	 0.154252,	 0.001422,	 0.818434,	 0.195746,	 0.672057,	 0.229532 
0.620000,	 0.007525,	 0.598561,	 0.150934,	 0.001321,	 0.822306,	 0.194153,	 0.673879,	 0.223987 
0.660000,	 0.007525,	 0.591422,	 0.147872,	 0.001241,	 0.825464,	 0.192692,	 0.675379,	 0.218954 
0.700000,	 0.007525,	 0.585286,	 0.145019,	 0.001178,	 0.827845,	 0.191348,	 0.676539,	 0.214361 
0.740000,	 0.007525,	 0.580091,	 0.142341,	 0.001129,	 0.829434,	 0.190108,	 0.677355,	 0.210149 
0.780000,	 0.007525,	 0.575767,	 0.139821,	 0.001089,	 0.830263,	 0.188964,	 0.677844,	 0.206279 
0.820000,	 0.007525,	 0.572221,	 0.137449,	 0.001060,	 0.830395,	 0.187906,	 0.678035,	 0.202723 
0.860000,	 0.007525,	 0.569360,	 0.135222,	 0.001037,	 0.829931,	 0.186930,	 0.677969,	 0.199457 
0.900000,	 0.007525,	 0.567100,	 0.133138,	 0.001018,	 0.828991,	 0.186038,	 0.677696,	 0.196463 
0.940000,	 0.007525,	 0.565358,	 0.131206,	 0.001003,	 0.827702,	 0.185233,	 0.677269,	 0.193735 
0.980000,	 0.007525,	 0.564054,	 0.129436,	 0.000990,	 0.826193,	 0.184517,	 0.676740,	 0.191270 
1.020000,	 0.007525,	 0.563117,	 0.127837,	 0.000979,	 0.824584,	 0.183894,	 0.676159,	 0.189069 
1.060000,	 0.007525,	 0.562484,	 0.126417,	 0.000970,	 0.822979,	 0.183367,	 0.675569,	 0.187133 
1.100000,	 0.007525,	 0.562101,	 0.125184,	 0.000963,	 0.821465,	 0.182937,	 0.675005,	 0.185461 
1.140000,	 0.007525,	 0.561924,	 0.124136,	 0.000958,	 0.820106,	 0.182603,	 0.674496,	 0.184048 
1.180000,	 0.007525,	 0.561916,	 0.123270,	 0.000954,	 0.818947,	 0.182364,	 0.674059,	 0.182882 
1.220000,	 0.007525,	 0.562049,	 0.122569,	 0.000952,	 0.818011,	 0.182216,	 0.673706,	 0.181938 
1.260000,	 0.007525,	 0.562307,	 0.122006,	 0.000951,	 0.817305,	 0.182156,	 0.673441,	 0.181174 
1.300000,	 0.007525,	 0.562686,	 0.121534,	 0.000953,	 0.816820,	 0.182183,	 0.673263,	 0.180520 
1.340000,	 0.007525,	 0.563209,	 0.121069,	 0.000959,	 0.816541,	 0.182302,	 0.673170,	 0.179855 
1.380000,	 0.007525,	 0.563942,	 0.120477,	 0.000972,	 0.816451,	 0.182535,	 0.673163,	 0.178977 
1.420000,	 0.007525,	 0.565027,	 0.119526,	 0.001000,	 0.816537,	 0.182931,	 0.673246,	 0.177543 
1.460000,	 0.007525,	 0.566733,	 0.117837,	 0.001050,	 0.816804,	 0.183590,	 0.673441,	 0.174985 
1.500000,	 0.007525,	 0.569541,	 0.114813,	 0.001133,	 0.817290,	 0.184690,	 0.673789,	 0.170407 
1.540000,	 0.007525,	 0.574236,	 0.109587,	 0.001255,	 0.818094,	 0.186532,	 0.674366,	 0.162514 
1.580000,	 0.007525,	 0.581990,	 0.101097,	 0.001405,	 0.819426,	 0.189569,	 0.675290,	 0.149723 
1.620000,	 0.007525,	 0.594305,	 0.088413,	 0.001540,	 0.821636,	 0.194391,	 0.676703,	 0.130673 
1.660000,	 0.007525,	 0.612688,	 0.071331,	 0.001590,	 0.825154,	 0.201601,	 0.678720,	 0.105123 
1.700000,	 0.007525,	 0.638150,	 0.050909,	 0.001484,	 0.830270,	 0.211603,	 0.681340,	 0.074751 
1.740000,	 0.007525,	 0.670553,	 0.029300,	 0.001251,	 0.836661,	 0.224295,	 0.684317,	 0.042856 
1.780000,	 0.007525,	 0.708786,	 0.008824,	 0.000966,	 0.843206,	 0.239050,	 0.687149,	 0.012918 
1.820000,	 0.007525,	 0.751355,	 -0.009047,	 0.000738,	 0.848041,	 0.254860,	 0.689115,	 0.013171 
1.860000,	 0.007525,	 0.797040,	 -0.024239,	 0.000715,	 0.849013,	 0.270585,	 0.689407,	 0.035174 
1.900000,	 0.007525,	 0.844935,	 -0.038377,	 0.001200,	 0.844493,	 0.285168,	 0.687389,	 0.055858 
1.940000,	 0.007525,	 0.895334,	 -0.054875,	 0.002765,	 0.834803,	 0.298430,	 0.683114,	 0.080433 
1.980000,	 0.007525,	 0.963021,	 -0.073667,	 0.003797,	 0.825161,	 0.316811,	 0.678651,	 0.108694 
2.020000,	 0.017487,	 1.121387,	 -0.065001,	 -0.031874,	 0.829178,	 0.370756,	 0.680347,	 0.106409 
2.060000,	 0.037412,	 1.256848,	 -0.045770,	 -0.023647,	 0.828326,	 0.415765,	 0.680529,	 0.075703 
2.100000,	 0.057337,	 1.367658,	 -0.026138,	 -0.013797,	 0.826410,	 0.451860,	 0.680107,	 0.043458 
2.140000,	 0.077262,	 1.462521,	 -0.008737,	 -0.005117,	 0.826282,	 0.483352,	 0.680213,	 0.014885 
2.180000,	 0.097186,	 1.541194,	 0.006818,	 0.002599,	 0.828275,	 0.510597,	 0.681043,	 0.010714 
2.220000,	 0.117111,	 1.602810,	 0.020884,	 0.009562,	 0.832237,	 0.533398,	 0.682572,	 0.033650 
2.260000,	 0.137036,	 1.646951,	 0.033606,	 0.015871,	 0.837854,	 0.551507,	 0.684698,	 0.054280 
2.300000,	 0.156961,	 1.674097,	 0.044971,	 0.021541,	 0.844755,	 0.564848,	 0.687289,	 0.072551 
2.340000,	 0.176885,	 1.685849,	 0.054888,	 0.026534,	 0.852578,	 0.573674,	 0.690220,	 0.088327 
2.380000,	 0.196810,	 1.684706,	 0.063281,	 0.030807,	 0.860988,	 0.578536,	 0.693373,	 0.101506 
2.420000,	 0.216735,	 1.673620,	 0.070133,	 0.034337,	 0.869680,	 0.580164,	 0.696644,	 0.112091 
2.460000,	 0.236660,	 1.655567,	 0.075499,	 0.037139,	 0.878378,	 0.579341,	 0.699935,	 0.120210 
2.500000,	 0.256584,	 1.633206,	 0.079496,	 0.039258,	 0.886835,	 0.576786,	 0.703155,	 0.126090 
2.540000,	 0.276509,	 1.608730,	 0.082281,	 0.040766,	 0.894839,	 0.573109,	 0.706221,	 0.130025 
2.580000,	 0.296434,	 1.583810,	 0.084033,	 0.041748,	 0.902210,	 0.568783,	 0.709064,	 0.132332 
2.620000,	 0.316358,	 1.559645,	 0.084933,	 0.042291,	 0.908815,	 0.564163,	 0.711629,	 0.133327 
2.660000,	 0.336283,	 1.537009,	 0.085152,	 0.042480,	 0.914561,	 0.559492,	 0.713876,	 0.133300 
2.700000,	 0.356208,	 1.516370,	 0.084842,	 0.042394,	 0.919406,	 0.554936,	 0.715785,	 0.132504 
2.740000,	 0.376133,	 1.497928,	 0.084136,	 0.042099,	 0.923349,	 0.550592,	 0.717354,	 0.131150 
2.780000,	 0.396058,	 1.481730,	 0.083144,	 0.041652,	 0.926431,	 0.546525,	 0.718596,	 0.129410 
2.820000,	 0.415982,	 1.467682,	 0.081956,	 0.041098,	 0.928722,	 0.542760,	 0.719535,	 0.127421 
2.860000,	 0.435907,	 1.455628,	 0.080644,	 0.040475,	 0.930318,	 0.539309,	 0.720207,	 0.125285 
2.900000,	 0.455832,	 1.445368,	 0.079261,	 0.039811,	 0.931329,	 0.536171,	 0.720653,	 0.123079 
2.940000,	 0.475757,	 1.436689,	 0.077853,	 0.039129,	 0.931871,	 0.533342,	 0.720917,	 0.120864 
2.980000,	 0.495681,	 1.429380,	 0.076450,	 0.038446,	 0.932057,	 0.530812,	 0.721042,	 0.118679 
3.020000,	 0.515606,	 1.423245,	 0.075076,	 0.037775,	 0.931993,	 0.528571,	 0.721067,	 0.116555 
3.060000,	 0.535531,	 1.418116,	 0.073748,	 0.037125,	 0.931771,	 0.526610,	 0.721029,	 0.114510 
3.100000,	 0.555455,	 1.413842,	 0.072478,	 0.036503,	 0.931470,	 0.524919,	 0.720957,	 0.112560 
3.140000,	 0.575380,	 1.410308,	 0.071272,	 0.035912,	 0.931152,	 0.523488,	 0.720876,	 0.110710 
3.180000,	 0.595305,	 1.407407,	 0.070135,	 0.035356,	 0.930864,	 0.522305,	 0.720803,	 0.108965 
3.220000,	 0.615230,	 1.405073,	 0.069066,	 0.034834,	 0.930640,	 0.521365,	 0.720752,	 0.107323 
3.260000,	 0.635154,	 1.403235,	 0.068067,	 0.034347,	 0.930500,	 0.520653,	 0.720730,	 0.105784 
3.300000,	 0.655079,	 1.401853,	 0.067133,	 0.033893,	 0.930458,	 0.520161,	 0.720745,	 0.104342 
3.340000,	 0.675004,	 1.400888,	 0.066264,	 0.033472,	 0.930520,	 0.519878,	 0.720797,	 0.102994 
3.380000,	 0.694929,	 1.400298,	 0.065452,	 0.033080,	 0.930685,	 0.519788,	 0.720887,	 0.101731 
3.420000,	 0.714854,	 1.400085,	 0.064696,	 0.032717,	 0.930952,	 0.519893,	 0.721014,	 0.100550 
3.460000,	 0.734778,	 1.400197,	 0.063992,	 0.032380,	 0.931314,	 0.520169,	 0.721176,	 0.099445 
3.500000,	 0.754703,	 1.400647,	 0.063336,	 0.032067,	 0.931767,	 0.520619,	 0.721373,	 0.098412 
3.540000,	 0.774628,	 1.401388,	 0.062727,	 0.031778,	 0.932303,	 0.521222,	 0.721599,	 0.097446 
3.580000,	 0.794552,	 1.402428,	 0.062163,	 0.031510,	 0.932918,	 0.521978,	 0.721855,	 0.096548 
3.620000,	 0.814477,	 1.403718,	 0.061643,	 0.031264,	 0.933601,	 0.522864,	 0.722135,	 0.095714 
3.660000,	 0.834402,	 1.405260,	 0.061169,	 0.031039,	 0.934349,	 0.523879,	 0.722439,	 0.094947 
3.700000,	 0.854327,	 1.406993,	 0.060741,	 0.030836,	 0.935151,	 0.524995,	 0.722762,	 0.094249 
3.740000,	 0.874251,	 1.408890,	 0.060364,	 0.030656,	 0.936002,	 0.526198,	 0.723103,	 0.093628 
3.780000,	 0.894176,	 1.410878,	 0.060043,	 0.030501,	 0.936891,	 0.527456,	 0.723456,	 0.093089 
3.820000,	 0.914101,	 1.412896,	 0.059787,	 0.030375,	 0.937813,	 0.528742,	 0.723820,	 0.092648 
3.860000,	 0.934026,	 1.414830,	 0.059607,	 0.030283,	 0.938756,	 0.530007,	 0.724190,	 0.092321 
3.900000,	 0.953951,	 1.416578,	 0.059518,	 0.030232,	 0.939706,	 0.531205,	 0.724560,	 0.092132 
3.940000,	 0.973875,	 1.418028,	 0.059536,	 0.030228,	 0.940618,	 0.532265,	 0.724912,	 0.092108 
3.980000,	 0.993800,	 1.419124,	 0.059673,	 0.030275,	 0.941341,	 0.533081,	 0.725188,	 0.092271 
0.020000,	 0.012600,	 1.128501,	 0.671757,	 0.039845,	 0.802721,	 0.260141,	 0.568091,	 1.184561 
0.060000,	 0.012600,	 1.028894,	 0.538595,	 0.033092,	 0.772976,	 0.258206,	 0.592736,	 0.910372 
0.100000,	 0.012600,	 0.927934,	 0.467755,	 0.024027,	 0.770290,	 0.245199,	 0.608226,	 0.770063 
0.140000,	 0.012600,	 0.859173,	 0.418365,	 0.017571,	 0.773144,	 0.235577,	 0.619569,	 0.675846 
0.180000,	 0.012600,	 0.809938,	 0.382174,	 0.013396,	 0.777065,	 0.228061,	 0.627862,	 0.609066 
0.220000,	 0.012600,	 0.773749,	 0.354245,	 0.010440,	 0.781042,	 0.222296,	 0.634205,	 0.558808 
0.260000,	 0.012600,	 0.744997,	 0.332518,	 0.008430,	 0.785013,	 0.217448,	 0.639240,	 0.520345 
0.300000,	 0.012600,	 0.721417,	 0.315152,	 0.006957,	 0.789107,	 0.213373,	 0.643488,	 0.489875 
0.340000,	 0.012600,	 0.701495,	 0.301038,	 0.005825,	 0.793411,	 0.209910,	 0.647245,	 0.465194 
0.380000,	 0.012600,	 0.683990,	 0.289450,	 0.004986,	 0.797928,	 0.206845,	 0.650672,	 0.444913 
0.420000,	 0.012600,	 0.668397,	 0.279734,	 0.004334,	 0.802637,	 0.204129,	 0.653882,	 0.427857 
0.460000,	 0.012600,	 0.654408,	 0.271435,	 0.003814,	 0.807455,	 0.201717,	 0.656918,	 0.413236 
0.500000,	 0.012600,	 0.641831,	 0.264226,	 0.003392,	 0.812254,	 0.199568,	 0.659781,	 0.400509 
0.540000,	 0.012600,	 0.630522,	 0.257870,	 0.003056,	 0.816868,	 0.197635,	 0.662438,	 0.389301 
0.580000,	 0.012600,	 0.620374,	 0.252180,	 0.002794,	 0.821131,	 0.195872,	 0.664850,	 0.379327 
0.620000,	 0.012600,	 0.611360,	 0.246998,	 0.002583,	 0.824901,	 0.194264,	 0.666979,	 0.370343 
0.660000,	 0.012600,	 0.603441,	 0.242217,	 0.002414,	 0.828057,	 0.192792,	 0.668792,	 0.362188 
0.700000,	 0.012600,	 0.596566,	 0.237761,	 0.002279,	 0.830518,	 0.191438,	 0.670269,	 0.354741 
0.740000,	 0.012600,	 0.590677,	 0.233579,	 0.002170,	 0.832246,	 0.190189,	 0.671402,	 0.347912 
0.780000,	 0.012600,	 0.585705,	 0.229639,	 0.002079,	 0.833250,	 0.189038,	 0.672200,	 0.341636 
0.820000,	 0.012600,	 0.581564,	 0.225927,	 0.002008,	 0.833572,	 0.187973,	 0.672687,	 0.335871 
0.860000,	 0.012600,	 0.578167,	 0.222440,	 0.001949,	 0.833291,	 0.186991,	 0.672895,	 0.330584 
0.900000,	 0.012600,	 0.575435,	 0.219179,	 0.001898,	 0.832510,	 0.186093,	 0.672870,	 0.325750 
0.940000,	 0.012600,	 0.573288,	 0.216158,	 0.001852,	 0.831346,	 0.185283,	 0.672659,	 0.321360 
0.980000,	 0.012600,	 0.571647,	 0.213393,	 0.001811,	 0.829920,	 0.184562,	 0.672312,	 0.317413 
1.020000,	 0.012600,	 0.570438,	 0.210900,	 0.001774,	 0.828349,	 0.183934,	 0.671878,	 0.313908 
1.060000,	 0.012600,	 0.569598,	 0.208694,	 0.001740,	 0.826740,	 0.183402,	 0.671400,	 0.310845 
1.100000,	 0.012600,	 0.569064,	 0.206783,	 0.001709,	 0.825184,	 0.182966,	 0.670917,	 0.308220 
1.140000,	 0.012600,	 0.568787,	 0.205169,	 0.001681,	 0.823756,	 0.182628,	 0.670460,	 0.306023 
1.180000,	 0.012600,	 0.568721,	 0.203843,	 0.001657,	 0.822507,	 0.182384,	 0.670051,	 0.304230 
1.220000,	 0.012600,	 0.568830,	 0.202782,	 0.001637,	 0.821470,	 0.182232,	 0.669708,	 0.302802 
1.260000,	 0.012600,	 0.569088,	 0.201945,	 0.001623,	 0.820659,	 0.182169,	 0.669439,	 0.301673 
1.300000,	 0.012600,	 0.569483,	 0.201263,	 0.001617,	 0.820071,	 0.182193,	 0.669251,	 0.300738 
1.340000,	 0.012600,	 0.570028,	 0.200621,	 0.001625,	 0.819693,	 0.182310,	 0.669147,	 0.299827 
1.380000,	 0.012600,	 0.570779,	 0.199832,	 0.001657,	 0.819504,	 0.182544,	 0.669134,	 0.298653 
1.420000,	 0.012600,	 0.571866,	 0.198579,	 0.001730,	 0.819483,	 0.182943,	 0.669230,	 0.296739 
1.460000,	 0.012600,	 0.573539,	 0.196338,	 0.001871,	 0.819616,	 0.183611,	 0.669470,	 0.293287 
1.500000,	 0.012600,	 0.576254,	 0.192268,	 0.002117,	 0.819910,	 0.184729,	 0.669923,	 0.287018 
1.540000,	 0.012600,	 0.580761,	 0.185117,	 0.002501,	 0.820420,	 0.186606,	 0.670700,	 0.276031 
1.580000,	 0.012600,	 0.588194,	 0.173267,	 0.003023,	 0.821308,	 0.189703,	 0.671955,	 0.257894 
1.620000,	 0.012600,	 0.600025,	 0.155150,	 0.003605,	 0.822907,	 0.194615,	 0.673858,	 0.230304 
1.660000,	 0.012600,	 0.617762,	 0.130117,	 0.004072,	 0.825704,	 0.201942,	 0.676497,	 0.192433 
1.700000,	 0.012600,	 0.642467,	 0.099345,	 0.004202,	 0.830137,	 0.212064,	 0.679785,	 0.146272 
1.740000,	 0.012600,	 0.674089,	 0.065797,	 0.003955,	 0.836067,	 0.224848,	 0.683360,	 0.096458 
1.780000,	 0.012600,	 0.711604,	 0.032963,	 0.003448,	 0.842484,	 0.239650,	 0.686647,	 0.048268 
1.820000,	 0.012600,	 0.753588,	 0.003317,	 0.002935,	 0.847519,	 0.255469,	 0.688916,	 0.006430 
1.860000,	 0.012600,	 0.798906,	 -0.022574,	 0.002773,	 0.848892,	 0.271191,	 0.689372,	 0.032991 
1.900000,	 0.012600,	 0.846785,	 -0.046319,	 0.003540,	 0.844773,	 0.285771,	 0.687364,	 0.067583 
1.940000,	 0.012600,	 0.897352,	 -0.071288,	 0.006023,	 0.835270,	 0.298894,	 0.682875,	 0.104767 
1.980000,	 0.012600,	 0.962238,	 -0.096612,	 0.007162,	 0.825142,	 0.315787,	 0.677829,	 0.142923 
2.020000,	 0.022537,	 1.128502,	 -0.083566,	 -0.042594,	 0.830605,	 0.372950,	 0.680202,	 0.137893 
2.060000,	 0.042410,	 1.260801,	 -0.055747,	 -0.030999,	 0.828993,	 0.417052,	 0.680512,	 0.093732 
2.100000,	 0.062285,	 1.370343,	 -0.027333,	 -0.016670,	 0.826600,	 0.452809,	 0.680153,	 0.047070 
2.140000,	 0.082158,	 1.464986,	 -0.001672,	 -0.003728,	 0.826084,	 0.484076,	 0.680149,	 0.006008 
2.180000,	 0.102033,	 1.544240,	 0.021461,	 0.007890,	 0.827730,	 0.511124,	 0.680722,	 0.033590 
2.220000,	 0.121907,	 1.607067,	 0.042443,	 0.018418,	 0.831375,	 0.533742,	 0.681887,	 0.067852 
2.260000,	 0.141781,	 1.652874,	 0.061446,	 0.027991,	 0.836709,	 0.551683,	 0.683579,	 0.098775 
2.300000,	 0.161655,	 1.681926,	 0.078435,	 0.036630,	 0.843377,	 0.564878,	 0.685706,	 0.126245 
2.340000,	 0.181529,	 1.695613,	 0.093293,	 0.044283,	 0.851026,	 0.573588,	 0.688178,	 0.150062 
2.380000,	 0.201403,	 1.696239,	 0.105910,	 0.050881,	 0.859327,	 0.578366,	 0.690911,	 0.170062 
2.420000,	 0.221276,	 1.686613,	 0.116263,	 0.056383,	 0.867974,	 0.579943,	 0.693823,	 0.186234 
2.460000,	 0.241150,	 1.669629,	 0.124421,	 0.060797,	 0.876690,	 0.579095,	 0.696833,	 0.198729 
2.500000,	 0.261024,	 1.647924,	 0.130549,	 0.064179,	 0.885222,	 0.576537,	 0.699856,	 0.207860 
2.540000,	 0.280899,	 1.623713,	 0.134864,	 0.066627,	 0.893351,	 0.572870,	 0.702809,	 0.214033 
2.580000,	 0.300773,	 1.598720,	 0.137623,	 0.068257,	 0.900891,	 0.568563,	 0.705614,	 0.217711 
2.620000,	 0.320647,	 1.574213,	 0.139081,	 0.069200,	 0.907700,	 0.563967,	 0.708206,	 0.219351 
2.660000,	 0.340521,	 1.551034,	 0.139492,	 0.069582,	 0.913678,	 0.559320,	 0.710532,	 0.219390 
2.700000,	 0.360395,	 1.529721,	 0.139079,	 0.069520,	 0.918769,	 0.554788,	 0.712560,	 0.218208 
2.740000,	 0.380269,	 1.510530,	 0.138042,	 0.069117,	 0.922964,	 0.550466,	 0.714274,	 0.216134 
2.780000,	 0.400143,	 1.493556,	 0.136546,	 0.068461,	 0.926292,	 0.546418,	 0.715675,	 0.213430 
2.820000,	 0.420017,	 1.478743,	 0.134731,	 0.067625,	 0.928813,	 0.542669,	 0.716779,	 0.210315 
2.860000,	 0.439891,	 1.465963,	 0.132705,	 0.066669,	 0.930616,	 0.539233,	 0.717614,	 0.206951 
2.900000,	 0.459765,	 1.455032,	 0.130560,	 0.065639,	 0.931805,	 0.536108,	 0.718214,	 0.203464 
2.940000,	 0.479638,	 1.445749,	 0.128361,	 0.064573,	 0.932493,	 0.533290,	 0.718620,	 0.199949 
2.980000,	 0.499513,	 1.437909,	 0.126163,	 0.063498,	 0.932792,	 0.530771,	 0.718872,	 0.196476 
3.020000,	 0.519386,	 1.431311,	 0.124003,	 0.062439,	 0.932809,	 0.528538,	 0.719010,	 0.193092 
3.060000,	 0.539261,	 1.425786,	 0.121911,	 0.061408,	 0.932641,	 0.526585,	 0.719070,	 0.189834 
3.100000,	 0.559134,	 1.421175,	 0.119905,	 0.060420,	 0.932371,	 0.524901,	 0.719083,	 0.186721 
3.140000,	 0.579009,	 1.417355,	 0.118000,	 0.059479,	 0.932064,	 0.523477,	 0.719073,	 0.183768 
3.180000,	 0.598882,	 1.414212,	 0.116199,	 0.058592,	 0.931774,	 0.522300,	 0.719063,	 0.180980 
3.220000,	 0.618757,	 1.411670,	 0.114508,	 0.057759,	 0.931537,	 0.521366,	 0.719066,	 0.178357 
3.260000,	 0.638630,	 1.409652,	 0.112923,	 0.056982,	 0.931380,	 0.520658,	 0.719092,	 0.175896 
3.300000,	 0.658505,	 1.408113,	 0.111443,	 0.056256,	 0.931317,	 0.520171,	 0.719148,	 0.173590 
3.340000,	 0.678379,	 1.407008,	 0.110061,	 0.055583,	 0.931358,	 0.519893,	 0.719238,	 0.171431 
3.380000,	 0.698253,	 1.406291,	 0.108772,	 0.054956,	 0.931501,	 0.519807,	 0.719362,	 0.169409 
3.420000,	 0.718127,	 1.405962,	 0.107569,	 0.054374,	 0.931748,	 0.519916,	 0.719522,	 0.167515 
3.460000,	 0.738001,	 1.405966,	 0.106447,	 0.053833,	 0.932092,	 0.520195,	 0.719713,	 0.165740 
3.500000,	 0.757875,	 1.406316,	 0.105402,	 0.053332,	 0.932531,	 0.520648,	 0.719938,	 0.164078 
3.540000,	 0.777749,	 1.406963,	 0.104429,	 0.052866,	 0.933054,	 0.521254,	 0.720190,	 0.162523 
3.580000,	 0.797623,	 1.407915,	 0.103526,	 0.052435,	 0.933658,	 0.522012,	 0.720471,	 0.161072 
3.620000,	 0.817497,	 1.409120,	 0.102691,	 0.052037,	 0.934334,	 0.522900,	 0.720775,	 0.159721 
3.660000,	 0.837371,	 1.410582,	 0.101925,	 0.051672,	 0.935076,	 0.523917,	 0.721101,	 0.158473 
3.700000,	 0.857245,	 1.412239,	 0.101232,	 0.051339,	 0.935875,	 0.525033,	 0.721445,	 0.157332 
3.740000,	 0.877119,	 1.414064,	 0.100616,	 0.051043,	 0.936724,	 0.526235,	 0.721804,	 0.156306 
3.780000,	 0.896993,	 1.415983,	 0.100085,	 0.050783,	 0.937614,	 0.527491,	 0.722175,	 0.155407 
3.820000,	 0.916867,	 1.417939,	 0.099652,	 0.050567,	 0.938539,	 0.528775,	 0.722555,	 0.154656 
3.860000,	 0.936741,	 1.419815,	 0.099335,	 0.050401,	 0.939487,	 0.530035,	 0.722937,	 0.154079 
3.900000,	 0.956615,	 1.421510,	 0.099155,	 0.050298,	 0.940446,	 0.531227,	 0.723318,	 0.153712 
3.940000,	 0.976489,	 1.422907,	 0.099139,	 0.050266,	 0.941373,	 0.532278,	 0.723678,	 0.153595 
3.980000,	 0.996363,	 1.423948,	 0.099289,	 0.050308,	 0.942123,	 0.533086,	 0.723961,	 0.153747 
0.020000,	 0.017724,	 1.134286,	 0.808202,	 0.056808,	 0.862846,	 0.242573,	 0.547172,	 1.480698 
0.060000,	 0.017724,	 1.087033,	 0.684292,	 0.053871,	 0.821044,	 0.254568,	 0.572591,	 1.198779 
0.100000,	 0.017724,	 0.994322,	 0.606899,	 0.040082,	 0.803817,	 0.246135,	 0.588690,	 1.033176 
0.140000,	 0.017724,	 0.918073,	 0.550059,	 0.029424,	 0.796996,	 0.236966,	 0.601130,	 0.916351 