TITLE = "MeshVolumeStats"
VARIABLES = "X", "Y", "VOL"
ZONE I=100, J=100, DATAPACKING=POINT
0.025000,	0.009777,	0.000978
0.075000,	0.009530,	0.000953
0.125000,	0.009282,	0.000928
0.175000,	0.009035,	0.000903
0.225000,	0.008787,	0.000879
0.275000,	0.008540,	0.000854
0.325000,	0.008292,	0.000829
0.375000,	0.008045,	0.000804
0.425000,	0.007797,	0.000780
0.475000,	0.007549,	0.000755
0.525000,	0.007302,	0.000730
0.575000,	0.007054,	0.000705
0.625000,	0.006807,	0.000681
0.675000,	0.006559,	0.000656
0.725000,	0.006312,	0.000631
0.775000,	0.006064,	0.000606
0.825000,	0.005817,	0.000582
0.875000,	0.005569,	0.000557
0.925000,	0.005322,	0.000532
0.975000,	0.005074,	0.000507
1.025000,	0.004827,	0.000483
1.075000,	0.004579,	0.000458
1.125000,	0.004332,	0.000433
1.175000,	0.004084,	0.000408
1.225000,	0.003837,	0.000384
1.275000,	0.003589,	0.000359
1.325000,	0.003342,	0.000334
1.375000,	0.003094,	0.000309
1.425000,	0.002847,	0.000285
1.475000,	0.002599,	0.000260
1.525000,	0.002528,	0.000253
1.575000,	0.002634,	0.000263
1.625000,	0.002740,	0.000274
1.675000,	0.002847,	0.000285
1.725000,	0.002953,	0.000295
1.775000,	0.003059,	0.000306
1.825000,	0.003165,	0.000316
1.875000,	0.003271,	0.000327
1.925000,	0.003377,	0.000338
1.975000,	0.003483,	0.000348
2.025000,	0.003589,	0.000359
2.075000,	0.003695,	0.000370
2.125000,	0.003801,	0.000380
2.175000,	0.003907,	0.000391
2.225000,	0.004013,	0.000401
2.275000,	0.004119,	0.000412
2.325000,	0.004226,	0.000423
2.375000,	0.004332,	0.000433
2.425000,	0.004438,	0.000444
2.475000,	0.004544,	0.000454
2.525000,	0.004650,	0.000465
2.575000,	0.004756,	0.000476
2.625000,	0.004862,	0.000486
2.675000,	0.004968,	0.000497
2.725000,	0.005074,	0.000507
2.775000,	0.005181,	0.000518
2.825000,	0.005286,	0.000529
2.875000,	0.005392,	0.000539
2.925000,	0.005498,	0.000550
2.975000,	0.005605,	0.000560
3.025000,	0.005711,	0.000571
3.075000,	0.005817,	0.000582
3.125000,	0.005923,	0.000592
3.175000,	0.006029,	0.000603
3.225000,	0.006135,	0.000613
3.275000,	0.006241,	0.000624
3.325000,	0.006347,	0.000635
3.375000,	0.006454,	0.000645
3.425000,	0.006560,	0.000656
3.475000,	0.006665,	0.000667
3.525000,	0.006771,	0.000677
3.575000,	0.006877,	0.000688
3.625000,	0.006984,	0.000698
3.675000,	0.007090,	0.000709
3.725000,	0.007196,	0.000720
3.775000,	0.007302,	0.000730
3.825000,	0.007408,	0.000741
3.875000,	0.007514,	0.000751
3.925000,	0.007620,	0.000762
3.975000,	0.007726,	0.000773
4.025000,	0.007832,	0.000783
4.075000,	0.007939,	0.000794
4.125000,	0.008044,	0.000804
4.175000,	0.008151,	0.000815
4.225000,	0.008257,	0.000826
4.275000,	0.008363,	0.000836
4.325000,	0.008469,	0.000847
4.375000,	0.008575,	0.000858
4.425000,	0.008681,	0.000868
4.475000,	0.008787,	0.000879
4.525000,	0.008893,	0.000889
4.575000,	0.009000,	0.000900
4.625000,	0.009105,	0.000911
4.675000,	0.009212,	0.000921
4.725000,	0.009317,	0.000932
4.775000,	0.009424,	0.000942
4.825000,	0.009529,	0.000953
4.875000,	0.009636,	0.000964
4.925000,	0.009742,	0.000974
4.975000,	0.009848,	0.000985
0.025000,	0.029332,	0.000978
0.075000,	0.028589,	0.000953
0.125000,	0.027847,	0.000928
0.175000,	0.027104,	0.000903
0.225000,	0.026362,	0.000879
0.275000,	0.025619,	0.000854
0.325000,	0.024876,	0.000829
0.375000,	0.024134,	0.000804
0.425000,	0.023391,	0.000780
0.475000,	0.022649,	0.000755
0.525000,	0.021906,	0.000730
0.575000,	0.021163,	0.000705
0.625000,	0.020421,	0.000681
0.675000,	0.019678,	0.000656
0.725000,	0.018936,	0.000631
0.775000,	0.018193,	0.000606
0.825000,	0.017450,	0.000582
0.875000,	0.016708,	0.000557
0.925000,	0.015965,	0.000532
0.975000,	0.015223,	0.000507
1.025000,	0.014480,	0.000483
1.075000,	0.013738,	0.000458
1.125000,	0.012995,	0.000433
1.175000,	0.012253,	0.000408
1.225000,	0.011510,	0.000384
1.275000,	0.010767,	0.000359
1.325000,	0.010025,	0.000334
1.375000,	0.009282,	0.000309
1.425000,	0.008540,	0.000285
1.475000,	0.007797,	0.000260
1.525000,	0.007585,	0.000253
1.575000,	0.007903,	0.000263
1.625000,	0.008221,	0.000274
1.675000,	0.008540,	0.000285
1.725000,	0.008858,	0.000295
1.775000,	0.009176,	0.000306
1.825000,	0.009494,	0.000316
1.875000,	0.009813,	0.000327
1.925000,	0.010131,	0.000338
1.975000,	0.010449,	0.000348
2.025000,	0.010767,	0.000359
2.075000,	0.011086,	0.000370
2.125000,	0.011404,	0.000380
2.175000,	0.011722,	0.000391
2.225000,	0.012040,	0.000401
2.275000,	0.012359,	0.000412
2.325000,	0.012677,	0.000423
2.375000,	0.012995,	0.000433
2.425000,	0.013313,	0.000444
2.475000,	0.013632,	0.000454
2.525000,	0.013950,	0.000465
2.575000,	0.014268,	0.000476
2.625000,	0.014586,	0.000486
2.675000,	0.014905,	0.000497
2.725000,	0.015223,	0.000507
2.775000,	0.015541,	0.000518
2.825000,	0.015859,	0.000529
2.875000,	0.016177,	0.000539
2.925000,	0.016496,	0.000550
2.975000,	0.016814,	0.000560
3.025000,	0.017132,	0.000571
3.075000,	0.017451,	0.000582
3.125000,	0.017769,	0.000592
3.175000,	0.018087,	0.000603
3.225000,	0.018405,	0.000613
3.275000,	0.018723,	0.000624
3.325000,	0.019042,	0.000635
3.375000,	0.019360,	0.000645
3.425000,	0.019678,	0.000656
3.475000,	0.019997,	0.000667
3.525000,	0.020314,	0.000677
3.575000,	0.020633,	0.000688
3.625000,	0.020951,	0.000698
3.675000,	0.021270,	0.000709
3.725000,	0.021588,	0.000720
3.775000,	0.021906,	0.000730
3.825000,	0.022224,	0.000741
3.875000,	0.022542,	0.000751
3.925000,	0.022861,	0.000762
3.975000,	0.023179,	0.000773
4.025000,	0.023497,	0.000783
4.075000,	0.023816,	0.000794
4.125000,	0.024134,	0.000804
4.175000,	0.024452,	0.000815
4.225000,	0.024770,	0.000826
4.275000,	0.025089,	0.000836
4.325000,	0.025407,	0.000847
4.375000,	0.025725,	0.000858
4.425000,	0.026043,	0.000868
4.475000,	0.026361,	0.000879
4.525000,	0.026680,	0.000889
4.575000,	0.026998,	0.000900
4.625000,	0.027316,	0.000911
4.675000,	0.027634,	0.000921
4.725000,	0.027953,	0.000932
4.775000,	0.028271,	0.000942
4.825000,	0.028589,	0.000953
4.875000,	0.028907,	0.000964
4.925000,	0.029226,	0.000974
4.975000,	0.029544,	0.000985
0.025000,	0.048886,	0.000978
0.075000,	0.047649,	0.000953
0.125000,	0.046411,	0.000928
0.175000,	0.045173,	0.000903
0.225000,	0.043936,	0.000879
0.275000,	0.042698,	0.000854
0.325000,	0.041460,	0.000829
0.375000,	0.040223,	0.000804
0.425000,	0.038985,	0.000780
0.475000,	0.037748,	0.000755
0.525000,	0.036510,	0.000730
0.575000,	0.035272,	0.000705
0.625000,	0.034035,	0.000681
0.675000,	0.032797,	0.000656
0.725000,	0.031560,	0.000631
0.775000,	0.030322,	0.000606
0.825000,	0.029084,	0.000582
0.875000,	0.027846,	0.000557
0.925000,	0.026609,	0.000532
0.975000,	0.025371,	0.000507
1.025000,	0.024134,	0.000483
1.075000,	0.022896,	0.000458
1.125000,	0.021659,	0.000433
1.175000,	0.020421,	0.000408
1.225000,	0.019183,	0.000384
1.275000,	0.017945,	0.000359
1.325000,	0.016708,	0.000334
1.375000,	0.015470,	0.000309
1.425000,	0.014233,	0.000285
1.475000,	0.012995,	0.000260
1.525000,	0.012641,	0.000253
1.575000,	0.013172,	0.000263
1.625000,	0.013702,	0.000274
1.675000,	0.014233,	0.000285
1.725000,	0.014763,	0.000295
1.775000,	0.015294,	0.000306
1.825000,	0.015824,	0.000316
1.875000,	0.016354,	0.000327
1.925000,	0.016885,	0.000338
1.975000,	0.017415,	0.000348
2.025000,	0.017946,	0.000359
2.075000,	0.018476,	0.000370
2.125000,	0.019006,	0.000380
2.175000,	0.019537,	0.000391
2.225000,	0.020067,	0.000401
2.275000,	0.020598,	0.000412
2.325000,	0.021128,	0.000423
2.375000,	0.021659,	0.000433
2.425000,	0.022189,	0.000444
2.475000,	0.022719,	0.000454
2.525000,	0.023250,	0.000465
2.575000,	0.023780,	0.000476
2.625000,	0.024310,	0.000486
2.675000,	0.024841,	0.000497
2.725000,	0.025371,	0.000507
2.775000,	0.025902,	0.000518
2.825000,	0.026432,	0.000529
2.875000,	0.026963,	0.000539
2.925000,	0.027493,	0.000550
2.975000,	0.028024,	0.000560
3.025000,	0.028554,	0.000571
3.075000,	0.029084,	0.000582
3.125000,	0.029615,	0.000592
3.175000,	0.030145,	0.000603
3.225000,	0.030675,	0.000614
3.275000,	0.031206,	0.000624
3.325000,	0.031736,	0.000635
3.375000,	0.032267,	0.000645
3.425000,	0.032797,	0.000656
3.475000,	0.033328,	0.000667
3.525000,	0.033858,	0.000677
3.575000,	0.034388,	0.000688
3.625000,	0.034919,	0.000698
3.675000,	0.035449,	0.000709
3.725000,	0.035979,	0.000720
3.775000,	0.036510,	0.000730
3.825000,	0.037040,	0.000741
3.875000,	0.037571,	0.000751
3.925000,	0.038101,	0.000762
3.975000,	0.038631,	0.000773
4.025000,	0.039162,	0.000783
4.075000,	0.039692,	0.000794
4.125000,	0.040223,	0.000804
4.175000,	0.040753,	0.000815
4.225000,	0.041284,	0.000826
4.275000,	0.041814,	0.000836
4.325000,	0.042345,	0.000847
4.375000,	0.042875,	0.000858
4.425000,	0.043405,	0.000868
4.475000,	0.043936,	0.000879
4.525000,	0.044466,	0.000889
4.575000,	0.044996,	0.000900
4.625000,	0.045527,	0.000911
4.675000,	0.046057,	0.000921
4.725000,	0.046588,	0.000932
4.775000,	0.047118,	0.000942
4.825000,	0.047648,	0.000953
4.875000,	0.048179,	0.000964
4.925000,	0.048709,	0.000974
4.975000,	0.049240,	0.000985
0.025000,	0.068441,	0.000978
0.075000,	0.066708,	0.000953
0.125000,	0.064975,	0.000928
0.175000,	0.063242,	0.000903
0.225000,	0.061510,	0.000879
0.275000,	0.059777,	0.000854
0.325000,	0.058045,	0.000829
0.375000,	0.056312,	0.000804
0.425000,	0.054579,	0.000780
0.475000,	0.052847,	0.000755
0.525000,	0.051114,	0.000730
0.575000,	0.049381,	0.000705
0.625000,	0.047649,	0.000681
0.675000,	0.045916,	0.000656
0.725000,	0.044183,	0.000631
0.775000,	0.042451,	0.000606
0.825000,	0.040718,	0.000582
0.875000,	0.038985,	0.000557
0.925000,	0.037252,	0.000532
0.975000,	0.035520,	0.000507
1.025000,	0.033787,	0.000483
1.075000,	0.032055,	0.000458
1.125000,	0.030322,	0.000433
1.175000,	0.028589,	0.000408
1.225000,	0.026856,	0.000384
1.275000,	0.025124,	0.000359
1.325000,	0.023391,	0.000334
1.375000,	0.021659,	0.000309
1.425000,	0.019926,	0.000285
1.475000,	0.018193,	0.000260
1.525000,	0.017698,	0.000253
1.575000,	0.018440,	0.000263
1.625000,	0.019183,	0.000274
1.675000,	0.019926,	0.000285
1.725000,	0.020668,	0.000295
1.775000,	0.021411,	0.000306
1.825000,	0.022154,	0.000317
1.875000,	0.022896,	0.000327
1.925000,	0.023639,	0.000338
1.975000,	0.024381,	0.000348
2.025000,	0.025124,	0.000359
2.075000,	0.025866,	0.000370
2.125000,	0.026609,	0.000380
2.175000,	0.027352,	0.000391
2.225000,	0.028094,	0.000401
2.275000,	0.028837,	0.000412
2.325000,	0.029579,	0.000423
2.375000,	0.030322,	0.000433
2.425000,	0.031064,	0.000444
2.475000,	0.031807,	0.000454
2.525000,	0.032550,	0.000465
2.575000,	0.033292,	0.000476
2.625000,	0.034035,	0.000486
2.675000,	0.034777,	0.000497
2.725000,	0.035520,	0.000507
2.775000,	0.036262,	0.000518
2.825000,	0.037005,	0.000529
2.875000,	0.037748,	0.000539
2.925000,	0.038490,	0.000550
2.975000,	0.039233,	0.000560
3.025000,	0.039975,	0.000571
3.075000,	0.040718,	0.000582
3.125000,	0.041460,	0.000592
3.175000,	0.042203,	0.000603
3.225000,	0.042945,	0.000613
3.275000,	0.043688,	0.000624
3.325000,	0.044431,	0.000635
3.375000,	0.045173,	0.000645
3.425000,	0.045916,	0.000656
3.475000,	0.046658,	0.000667
3.525000,	0.047401,	0.000677
3.575000,	0.048144,	0.000688
3.625000,	0.048886,	0.000698
3.675000,	0.049629,	0.000709
3.725000,	0.050372,	0.000720
3.775000,	0.051114,	0.000730
3.825000,	0.051857,	0.000741
3.875000,	0.052599,	0.000751
3.925000,	0.053342,	0.000762
3.975000,	0.054084,	0.000773
4.025000,	0.054827,	0.000783
4.075000,	0.055569,	0.000794
4.125000,	0.056312,	0.000804
4.175000,	0.057055,	0.000815
4.225000,	0.057797,	0.000826
4.275000,	0.058540,	0.000836
4.325000,	0.059282,	0.000847
4.375000,	0.060025,	0.000857
4.425000,	0.060768,	0.000868
4.475000,	0.061510,	0.000879
4.525000,	0.062253,	0.000889
4.575000,	0.062995,	0.000900
4.625000,	0.063738,	0.000911
4.675000,	0.064480,	0.000921
4.725000,	0.065223,	0.000932
4.775000,	0.065965,	0.000942
4.825000,	0.066708,	0.000953
4.875000,	0.067450,	0.000964
4.925000,	0.068193,	0.000974
4.975000,	0.068935,	0.000985
0.025000,	0.087995,	0.000978
0.075000,	0.085767,	0.000953
0.125000,	0.083540,	0.000928
0.175000,	0.081312,	0.000903
0.225000,	0.079084,	0.000879
0.275000,	0.076856,	0.000854
0.325000,	0.074629,	0.000829
0.375000,	0.072401,	0.000804
0.425000,	0.070173,	0.000780
0.475000,	0.067946,	0.000755
0.525000,	0.065718,	0.000730
0.575000,	0.063490,	0.000705
0.625000,	0.061262,	0.000681
0.675000,	0.059035,	0.000656
0.725000,	0.056807,	0.000631
0.775000,	0.054579,	0.000606
0.825000,	0.052352,	0.000582
0.875000,	0.050124,	0.000557
0.925000,	0.047896,	0.000532
0.975000,	0.045668,	0.000507
1.025000,	0.043441,	0.000483
1.075000,	0.041213,	0.000458
1.125000,	0.038985,	0.000433
1.175000,	0.036757,	0.000408
1.225000,	0.034530,	0.000384
1.275000,	0.032302,	0.000359
1.325000,	0.030074,	0.000334
1.375000,	0.027847,	0.000309
1.425000,	0.025619,	0.000285
1.475000,	0.023391,	0.000260
1.525000,	0.022755,	0.000253
1.575000,	0.023709,	0.000263
1.625000,	0.024664,	0.000274
1.675000,	0.025619,	0.000285
1.725000,	0.026574,	0.000295
1.775000,	0.027528,	0.000306
1.825000,	0.028483,	0.000316
1.875000,	0.029438,	0.000327
1.925000,	0.030392,	0.000338
1.975000,	0.031348,	0.000348
2.025000,	0.032302,	0.000359
2.075000,	0.033257,	0.000370
2.125000,	0.034211,	0.000380
2.175000,	0.035166,	0.000391
2.225000,	0.036121,	0.000401
2.275000,	0.037076,	0.000412
2.325000,	0.038030,	0.000423
2.375000,	0.038985,	0.000433
2.425000,	0.039940,	0.000444
2.475000,	0.040895,	0.000454
2.525000,	0.041849,	0.000465
2.575000,	0.042804,	0.000476
2.625000,	0.043759,	0.000486
2.675000,	0.044714,	0.000497
2.725000,	0.045668,	0.000507
2.775000,	0.046623,	0.000518
2.825000,	0.047578,	0.000529
2.875000,	0.048532,	0.000539
2.925000,	0.049487,	0.000550
2.975000,	0.050442,	0.000560
3.025000,	0.051397,	0.000571
3.075000,	0.052352,	0.000582
3.125000,	0.053307,	0.000592
3.175000,	0.054261,	0.000603
3.225000,	0.055216,	0.000613
3.275000,	0.056170,	0.000624
3.325000,	0.057125,	0.000635
3.375000,	0.058080,	0.000645
3.425000,	0.059035,	0.000656
3.475000,	0.059989,	0.000667
3.525000,	0.060944,	0.000677
3.575000,	0.061899,	0.000688
3.625000,	0.062854,	0.000698
3.675000,	0.063809,	0.000709
3.725000,	0.064763,	0.000720
3.775000,	0.065718,	0.000730
3.825000,	0.066672,	0.000741
3.875000,	0.067627,	0.000751
3.925000,	0.068582,	0.000762
3.975000,	0.069537,	0.000773
4.025000,	0.070491,	0.000783
4.075000,	0.071446,	0.000794
4.125000,	0.072401,	0.000804
4.175000,	0.073356,	0.000815
4.225000,	0.074311,	0.000826
4.275000,	0.075265,	0.000836
4.325000,	0.076220,	0.000847
4.375000,	0.077175,	0.000858
4.425000,	0.078130,	0.000868
4.475000,	0.079084,	0.000879
4.525000,	0.080039,	0.000889
4.575000,	0.080994,	0.000900
4.625000,	0.081948,	0.000911
4.675000,	0.082903,	0.000921
4.725000,	0.083858,	0.000932
4.775000,	0.084813,	0.000942
4.825000,	0.085767,	0.000953
4.875000,	0.086722,	0.000964
4.925000,	0.087677,	0.000974
4.975000,	0.088632,	0.000985
0.025000,	0.107550,	0.000978
0.075000,	0.104827,	0.000953
0.125000,	0.102104,	0.000928
0.175000,	0.099381,	0.000903
0.225000,	0.096658,	0.000879
0.275000,	0.093936,	0.000854
0.325000,	0.091213,	0.000829
0.375000,	0.088490,	0.000804
0.425000,	0.085767,	0.000780
0.475000,	0.083044,	0.000755
0.525000,	0.080322,	0.000730
0.575000,	0.077599,	0.000705
0.625000,	0.074876,	0.000681
0.675000,	0.072154,	0.000656
0.725000,	0.069431,	0.000631
0.775000,	0.066708,	0.000606
0.825000,	0.063985,	0.000582
0.875000,	0.061263,	0.000557
0.925000,	0.058540,	0.000532
0.975000,	0.055817,	0.000507
1.025000,	0.053094,	0.000483
1.075000,	0.050371,	0.000458
1.125000,	0.047648,	0.000433
1.175000,	0.044926,	0.000408
1.225000,	0.042203,	0.000384
1.275000,	0.039480,	0.000359
1.325000,	0.036757,	0.000334
1.375000,	0.034035,	0.000309
1.425000,	0.031312,	0.000285
1.475000,	0.028589,	0.000260
1.525000,	0.027811,	0.000253
1.575000,	0.028978,	0.000263
1.625000,	0.030145,	0.000274
1.675000,	0.031312,	0.000285
1.725000,	0.032479,	0.000295
1.775000,	0.033646,	0.000306
1.825000,	0.034812,	0.000317
1.875000,	0.035979,	0.000327
1.925000,	0.037146,	0.000338
1.975000,	0.038314,	0.000348
2.025000,	0.039480,	0.000359
2.075000,	0.040647,	0.000370
2.125000,	0.041814,	0.000380
2.175000,	0.042981,	0.000391
2.225000,	0.044148,	0.000401
2.275000,	0.045315,	0.000412
2.325000,	0.046482,	0.000423
2.375000,	0.047648,	0.000433
2.425000,	0.048815,	0.000444
2.475000,	0.049982,	0.000454
2.525000,	0.051150,	0.000465
2.575000,	0.052317,	0.000476
2.625000,	0.053483,	0.000486
2.675000,	0.054650,	0.000497
2.725000,	0.055817,	0.000507
2.775000,	0.056984,	0.000518
2.825000,	0.058151,	0.000529
2.875000,	0.059318,	0.000539
2.925000,	0.060485,	0.000550
2.975000,	0.061651,	0.000560
3.025000,	0.062818,	0.000571
3.075000,	0.063985,	0.000582
3.125000,	0.065152,	0.000592
3.175000,	0.066319,	0.000603
3.225000,	0.067486,	0.000613
3.275000,	0.068653,	0.000624
3.325000,	0.069820,	0.000635
3.375000,	0.070987,	0.000645
3.425000,	0.072153,	0.000656
3.475000,	0.073320,	0.000667
3.525000,	0.074487,	0.000677
3.575000,	0.075654,	0.000688
3.625000,	0.076821,	0.000698
3.675000,	0.077988,	0.000709
3.725000,	0.079155,	0.000720
3.775000,	0.080322,	0.000730
3.825000,	0.081489,	0.000741
3.875000,	0.082655,	0.000751
3.925000,	0.083822,	0.000762
3.975000,	0.084989,	0.000773
4.025000,	0.086156,	0.000783
4.075000,	0.087323,	0.000794
4.125000,	0.088490,	0.000804
4.175000,	0.089657,	0.000815
4.225000,	0.090824,	0.000826
4.275000,	0.091991,	0.000836
4.325000,	0.093158,	0.000847
4.375000,	0.094325,	0.000858
4.425000,	0.095492,	0.000868
4.475000,	0.096658,	0.000879
4.525000,	0.097825,	0.000889
4.575000,	0.098992,	0.000900
4.625000,	0.100159,	0.000911
4.675000,	0.101326,	0.000921
4.725000,	0.102493,	0.000932
4.775000,	0.103660,	0.000942
4.825000,	0.104827,	0.000953
4.875000,	0.105993,	0.000964
4.925000,	0.107160,	0.000974
4.975000,	0.108327,	0.000985
0.025000,	0.127104,	0.000978
0.075000,	0.123886,	0.000953
0.125000,	0.120668,	0.000928
0.175000,	0.117451,	0.000903
0.225000,	0.114233,	0.000879
0.275000,	0.111015,	0.000854
0.325000,	0.107797,	0.000829
0.375000,	0.104579,	0.000804
0.425000,	0.101361,	0.000780
0.475000,	0.098143,	0.000755
0.525000,	0.094926,	0.000730
0.575000,	0.091708,	0.000705
0.625000,	0.088490,	0.000681
0.675000,	0.085272,	0.000656
0.725000,	0.082055,	0.000631
0.775000,	0.078837,	0.000606
0.825000,	0.075619,	0.000582
0.875000,	0.072401,	0.000557
0.925000,	0.069183,	0.000532
0.975000,	0.065965,	0.000507
1.025000,	0.062748,	0.000483
1.075000,	0.059530,	0.000458
1.125000,	0.056312,	0.000433
1.175000,	0.053094,	0.000408
1.225000,	0.049876,	0.000384
1.275000,	0.046658,	0.000359
1.325000,	0.043441,	0.000334
1.375000,	0.040223,	0.000309
1.425000,	0.037005,	0.000285
1.475000,	0.033787,	0.000260
1.525000,	0.032868,	0.000253
1.575000,	0.034247,	0.000263
1.625000,	0.035626,	0.000274
1.675000,	0.037005,	0.000285
1.725000,	0.038384,	0.000295
1.775000,	0.039763,	0.000306
1.825000,	0.041142,	0.000316
1.875000,	0.042522,	0.000327
1.925000,	0.043901,	0.000338
1.975000,	0.045280,	0.000348
2.025000,	0.046658,	0.000359
2.075000,	0.048037,	0.000370
2.125000,	0.049417,	0.000380
2.175000,	0.050796,	0.000391
2.225000,	0.052175,	0.000401
2.275000,	0.053554,	0.000412
2.325000,	0.054933,	0.000423
2.375000,	0.056312,	0.000433
2.425000,	0.057691,	0.000444
2.475000,	0.059070,	0.000454
2.525000,	0.060449,	0.000465
2.575000,	0.061829,	0.000476
2.625000,	0.063208,	0.000486
2.675000,	0.064587,	0.000497
2.725000,	0.065965,	0.000507
2.775000,	0.067345,	0.000518
2.825000,	0.068723,	0.000529
2.875000,	0.070103,	0.000539
2.925000,	0.071482,	0.000550
2.975000,	0.072861,	0.000560
3.025000,	0.074240,	0.000571
3.075000,	0.075619,	0.000582
3.125000,	0.076997,	0.000592
3.175000,	0.078377,	0.000603
3.225000,	0.079756,	0.000614
3.275000,	0.081135,	0.000624
3.325000,	0.082514,	0.000635
3.375000,	0.083893,	0.000645
3.425000,	0.085272,	0.000656
3.475000,	0.086651,	0.000667
3.525000,	0.088030,	0.000677
3.575000,	0.089410,	0.000688
3.625000,	0.090789,	0.000698
3.675000,	0.092167,	0.000709
3.725000,	0.093547,	0.000720
3.775000,	0.094925,	0.000730
3.825000,	0.096305,	0.000741
3.875000,	0.097684,	0.000751
3.925000,	0.099063,	0.000762
3.975000,	0.100442,	0.000773
4.025000,	0.101821,	0.000783
4.075000,	0.103200,	0.000794
4.125000,	0.104579,	0.000804
4.175000,	0.105958,	0.000815
4.225000,	0.107337,	0.000826
4.275000,	0.108716,	0.000836
4.325000,	0.110096,	0.000847
4.375000,	0.111475,	0.000858
4.425000,	0.112854,	0.000868
4.475000,	0.114233,	0.000879
4.525000,	0.115612,	0.000889
4.575000,	0.116991,	0.000900
4.625000,	0.118370,	0.000911
4.675000,	0.119749,	0.000921
4.725000,	0.121128,	0.000932
4.775000,	0.122507,	0.000942
4.825000,	0.123886,	0.000953
4.875000,	0.125265,	0.000964
4.925000,	0.126644,	0.000974
4.975000,	0.128024,	0.000985
0.025000,	0.146659,	0.000978
0.075000,	0.142946,	0.000953
0.125000,	0.139233,	0.000928
0.175000,	0.135520,	0.000903
0.225000,	0.131807,	0.000879
0.275000,	0.128094,	0.000854
0.325000,	0.124381,	0.000829
0.375000,	0.120668,	0.000804
0.425000,	0.116956,	0.000780
0.475000,	0.113243,	0.000755
0.525000,	0.109530,	0.000730
0.575000,	0.105817,	0.000705
0.625000,	0.102104,	0.000681
0.675000,	0.098391,	0.000656
0.725000,	0.094678,	0.000631
0.775000,	0.090966,	0.000606
0.825000,	0.087252,	0.000582
0.875000,	0.083540,	0.000557
0.925000,	0.079827,	0.000532
0.975000,	0.076114,	0.000507
1.025000,	0.072401,	0.000483
1.075000,	0.068688,	0.000458
1.125000,	0.064975,	0.000433
1.175000,	0.061262,	0.000408
1.225000,	0.057550,	0.000384
1.275000,	0.053837,	0.000359
1.325000,	0.050124,	0.000334
1.375000,	0.046411,	0.000309
1.425000,	0.042698,	0.000285
1.475000,	0.038985,	0.000260
1.525000,	0.037924,	0.000253
1.575000,	0.039516,	0.000263
1.625000,	0.041107,	0.000274
1.675000,	0.042698,	0.000285
1.725000,	0.044289,	0.000295
1.775000,	0.045880,	0.000306
1.825000,	0.047472,	0.000316
1.875000,	0.049063,	0.000327
1.925000,	0.050654,	0.000338
1.975000,	0.052246,	0.000348
2.025000,	0.053837,	0.000359
2.075000,	0.055428,	0.000370
2.125000,	0.057019,	0.000380
2.175000,	0.058610,	0.000391
2.225000,	0.060202,	0.000401
2.275000,	0.061793,	0.000412
2.325000,	0.063384,	0.000423
2.375000,	0.064975,	0.000433
2.425000,	0.066567,	0.000444
2.475000,	0.068157,	0.000454
2.525000,	0.069749,	0.000465
2.575000,	0.071341,	0.000476
2.625000,	0.072931,	0.000486
2.675000,	0.074522,	0.000497
2.725000,	0.076114,	0.000507
2.775000,	0.077705,	0.000518
2.825000,	0.079296,	0.000529
2.875000,	0.080888,	0.000539
2.925000,	0.082479,	0.000550
2.975000,	0.084070,	0.000560
3.025000,	0.085661,	0.000571
3.075000,	0.087252,	0.000582
3.125000,	0.088844,	0.000592
3.175000,	0.090435,	0.000603
3.225000,	0.092026,	0.000613
3.275000,	0.093618,	0.000624
3.325000,	0.095209,	0.000635
3.375000,	0.096800,	0.000645
3.425000,	0.098391,	0.000656
3.475000,	0.099982,	0.000667
3.525000,	0.101574,	0.000677
3.575000,	0.103165,	0.000688
3.625000,	0.104756,	0.000698
3.675000,	0.106347,	0.000709
3.725000,	0.107939,	0.000720
3.775000,	0.109530,	0.000730
3.825000,	0.111121,	0.000741
3.875000,	0.112712,	0.000751
3.925000,	0.114304,	0.000762
3.975000,	0.115895,	0.000773
4.025000,	0.117486,	0.000783
4.075000,	0.119077,	0.000794
4.125000,	0.120668,	0.000804
4.175000,	0.122259,	0.000815
4.225000,	0.123851,	0.000826
4.275000,	0.125442,	0.000836
4.325000,	0.127033,	0.000847
4.375000,	0.128625,	0.000858
4.425000,	0.130216,	0.000868
4.475000,	0.131807,	0.000879
4.525000,	0.133398,	0.000889
4.575000,	0.134989,	0.000900
4.625000,	0.136581,	0.000911
4.675000,	0.138172,	0.000921
4.725000,	0.139763,	0.000932
4.775000,	0.141354,	0.000942
4.825000,	0.142946,	0.000953
4.875000,	0.144537,	0.000964
4.925000,	0.146128,	0.000974
4.975000,	0.147720,	0.000985
0.025000,	0.166213,	0.000978
0.075000,	0.162005,	0.000953
0.125000,	0.157797,	0.000928
0.175000,	0.153589,	0.000903
0.225000,	0.149381,	0.000879
0.275000,	0.145173,	0.000854
0.325000,	0.140965,	0.000829
0.375000,	0.136758,	0.000804
0.425000,	0.132550,	0.000780
0.475000,	0.128342,	0.000755
0.525000,	0.124133,	0.000730
0.575000,	0.119925,	0.000705
0.625000,	0.115718,	0.000681
0.675000,	0.111510,	0.000656
0.725000,	0.107302,	0.000631
0.775000,	0.103094,	0.000606
0.825000,	0.098886,	0.000582
0.875000,	0.094678,	0.000557
0.925000,	0.090470,	0.000532
0.975000,	0.086262,	0.000507
1.025000,	0.082055,	0.000483
1.075000,	0.077846,	0.000458
1.125000,	0.073639,	0.000433
1.175000,	0.069431,	0.000408
1.225000,	0.065223,	0.000384
1.275000,	0.061015,	0.000359
1.325000,	0.056807,	0.000334
1.375000,	0.052599,	0.000309
1.425000,	0.048391,	0.000285
1.475000,	0.044183,	0.000260
1.525000,	0.042981,	0.000253
1.575000,	0.044784,	0.000263
1.625000,	0.046588,	0.000274
1.675000,	0.048391,	0.000285
1.725000,	0.050195,	0.000295
1.775000,	0.051998,	0.000306
1.825000,	0.053801,	0.000316
1.875000,	0.055605,	0.000327
1.925000,	0.057408,	0.000338
1.975000,	0.059212,	0.000348
2.025000,	0.061015,	0.000359
2.075000,	0.062818,	0.000370
2.125000,	0.064622,	0.000380
2.175000,	0.066425,	0.000391
2.225000,	0.068228,	0.000401
2.275000,	0.070032,	0.000412
2.325000,	0.071835,	0.000423
2.375000,	0.073639,	0.000433
2.425000,	0.075442,	0.000444
2.475000,	0.077245,	0.000454
2.525000,	0.079049,	0.000465
2.575000,	0.080852,	0.000476
2.625000,	0.082655,	0.000486
2.675000,	0.084459,	0.000497
2.725000,	0.086262,	0.000507
2.775000,	0.088066,	0.000518
2.825000,	0.089869,	0.000529
2.875000,	0.091673,	0.000539
2.925000,	0.093476,	0.000550
2.975000,	0.095279,	0.000560
3.025000,	0.097083,	0.000571
3.075000,	0.098886,	0.000582
3.125000,	0.100690,	0.000592
3.175000,	0.102493,	0.000603
3.225000,	0.104297,	0.000613
3.275000,	0.106100,	0.000624
3.325000,	0.107903,	0.000635
3.375000,	0.109707,	0.000645
3.425000,	0.111510,	0.000656
3.475000,	0.113313,	0.000667
3.525000,	0.115117,	0.000677
3.575000,	0.116920,	0.000688
3.625000,	0.118723,	0.000698
3.675000,	0.120527,	0.000709
3.725000,	0.122330,	0.000720
3.775000,	0.124134,	0.000730
3.825000,	0.125937,	0.000741
3.875000,	0.127741,	0.000751
3.925000,	0.129544,	0.000762
3.975000,	0.131347,	0.000773
4.025000,	0.133151,	0.000783
4.075000,	0.134954,	0.000794
4.125000,	0.136758,	0.000804
4.175000,	0.138561,	0.000815
4.225000,	0.140364,	0.000826
4.275000,	0.142168,	0.000836
4.325000,	0.143971,	0.000847
4.375000,	0.145775,	0.000858
4.425000,	0.147578,	0.000868
4.475000,	0.149381,	0.000879
4.525000,	0.151185,	0.000889
4.575000,	0.152988,	0.000900
4.625000,	0.154791,	0.000911
4.675000,	0.156595,	0.000921
4.725000,	0.158398,	0.000932
4.775000,	0.160202,	0.000942
4.825000,	0.162005,	0.000953
4.875000,	0.163808,	0.000964
4.925000,	0.165612,	0.000974
4.975000,	0.167415,	0.000985
0.025000,	0.185767,	0.000978
0.075000,	0.181064,	0.000953
0.125000,	0.176361,	0.000928
0.175000,	0.171658,	0.000903
0.225000,	0.166956,	0.000879
0.275000,	0.162252,	0.000854
0.325000,	0.157550,	0.000829
0.375000,	0.152847,	0.000804
0.425000,	0.148143,	0.000780
0.475000,	0.143441,	0.000755
0.525000,	0.138738,	0.000730
0.575000,	0.134035,	0.000705
0.625000,	0.129331,	0.000681
0.675000,	0.124629,	0.000656
0.725000,	0.119926,	0.000631
0.775000,	0.115223,	0.000606
0.825000,	0.110520,	0.000582
0.875000,	0.105817,	0.000557
0.925000,	0.101114,	0.000532
0.975000,	0.096411,	0.000507
1.025000,	0.091708,	0.000483
1.075000,	0.087005,	0.000458
1.125000,	0.082302,	0.000433
1.175000,	0.077599,	0.000408
1.225000,	0.072896,	0.000384
1.275000,	0.068193,	0.000359
1.325000,	0.063490,	0.000334
1.375000,	0.058787,	0.000309
1.425000,	0.054084,	0.000285
1.475000,	0.049381,	0.000260
1.525000,	0.048037,	0.000253
1.575000,	0.050053,	0.000263
1.625000,	0.052069,	0.000274
1.675000,	0.054084,	0.000285
1.725000,	0.056100,	0.000295
1.775000,	0.058115,	0.000306
1.825000,	0.060131,	0.000316
1.875000,	0.062146,	0.000327
1.925000,	0.064162,	0.000338
1.975000,	0.066178,	0.000348
2.025000,	0.068193,	0.000359
2.075000,	0.070209,	0.000370
2.125000,	0.072224,	0.000380
2.175000,	0.074240,	0.000391
2.225000,	0.076256,	0.000401
2.275000,	0.078271,	0.000412
2.325000,	0.080286,	0.000423
2.375000,	0.082302,	0.000433
2.425000,	0.084317,	0.000444
2.475000,	0.086333,	0.000454
2.525000,	0.088348,	0.000465
2.575000,	0.090364,	0.000476
2.625000,	0.092380,	0.000486
2.675000,	0.094395,	0.000497
2.725000,	0.096411,	0.000507
2.775000,	0.098427,	0.000518
2.825000,	0.100442,	0.000529
2.875000,	0.102457,	0.000539
2.925000,	0.104473,	0.000550
2.975000,	0.106489,	0.000560
3.025000,	0.108504,	0.000571
3.075000,	0.110520,	0.000582
3.125000,	0.112535,	0.000592
3.175000,	0.114551,	0.000603
3.225000,	0.116567,	0.000613
3.275000,	0.118582,	0.000624
3.325000,	0.120598,	0.000635
3.375000,	0.122613,	0.000645
3.425000,	0.124629,	0.000656
3.475000,	0.126644,	0.000667
3.525000,	0.128660,	0.000677
3.575000,	0.130675,	0.000688
3.625000,	0.132691,	0.000698
3.675000,	0.134707,	0.000709
3.725000,	0.136722,	0.000720
3.775000,	0.138738,	0.000730
3.825000,	0.140753,	0.000741
3.875000,	0.142769,	0.000751
3.925000,	0.144784,	0.000762
3.975000,	0.146800,	0.000773
4.025000,	0.148815,	0.000783
4.075000,	0.150831,	0.000794
4.125000,	0.152847,	0.000804
4.175000,	0.154862,	0.000815
4.225000,	0.156878,	0.000826
4.275000,	0.158893,	0.000836
4.325000,	0.160909,	0.000847
4.375000,	0.162924,	0.000857
4.425000,	0.164940,	0.000868
4.475000,	0.166955,	0.000879
4.525000,	0.168971,	0.000889
4.575000,	0.170987,	0.000900
4.625000,	0.173002,	0.000911
4.675000,	0.175017,	0.000921
4.725000,	0.177033,	0.000932
4.775000,	0.179049,	0.000942
4.825000,	0.181064,	0.000953
4.875000,	0.183080,	0.000964
4.925000,	0.185096,	0.000974
4.975000,	0.187111,	0.000985
0.025000,	0.205322,	0.000978
0.075000,	0.200124,	0.000953
0.125000,	0.194926,	0.000928
0.175000,	0.189728,	0.000903
0.225000,	0.184530,	0.000879
0.275000,	0.179332,	0.000854
0.325000,	0.174134,	0.000829
0.375000,	0.168936,	0.000804
0.425000,	0.163737,	0.000780
0.475000,	0.158540,	0.000755
0.525000,	0.153342,	0.000730
0.575000,	0.148143,	0.000705
0.625000,	0.142946,	0.000681
0.675000,	0.137747,	0.000656
0.725000,	0.132549,	0.000631
0.775000,	0.127352,	0.000606
0.825000,	0.122154,	0.000582
0.875000,	0.116956,	0.000557
0.925000,	0.111757,	0.000532
0.975000,	0.106559,	0.000507
1.025000,	0.101361,	0.000483
1.075000,	0.096163,	0.000458
1.125000,	0.090965,	0.000433
1.175000,	0.085767,	0.000408
1.225000,	0.080569,	0.000384
1.275000,	0.075371,	0.000359
1.325000,	0.070173,	0.000334
1.375000,	0.064975,	0.000309
1.425000,	0.059777,	0.000285
1.475000,	0.054579,	0.000260
1.525000,	0.053094,	0.000253