TITLE = "MeshVolumeStats"
VARIABLES = "X", "Y", "VOL"
ZONE I=300, J=100, DATAPACKING=POINT
0.008334,	0.009901,	0.000330
0.025000,	0.009901,	0.000330
0.041667,	0.009901,	0.000330
0.058334,	0.009901,	0.000330
0.075000,	0.009901,	0.000330
0.091667,	0.009901,	0.000330
0.108334,	0.009901,	0.000330
0.125000,	0.009901,	0.000330
0.141667,	0.009901,	0.000330
0.158334,	0.009901,	0.000330
0.175000,	0.009901,	0.000330
0.191667,	0.009901,	0.000330
0.208334,	0.009901,	0.000330
0.225000,	0.009901,	0.000330
0.241667,	0.009901,	0.000330
0.258333,	0.009901,	0.000330
0.275000,	0.009901,	0.000330
0.291667,	0.009901,	0.000330
0.308333,	0.009901,	0.000330
0.325000,	0.009901,	0.000330
0.341666,	0.009901,	0.000330
0.358333,	0.009901,	0.000330
0.375000,	0.009901,	0.000330
0.391667,	0.009901,	0.000330
0.408334,	0.009901,	0.000330
0.425000,	0.009901,	0.000330
0.441667,	0.009901,	0.000330
0.458334,	0.009901,	0.000330
0.475000,	0.009901,	0.000330
0.491667,	0.009901,	0.000330
0.508333,	0.009901,	0.000330
0.525000,	0.009901,	0.000330
0.541667,	0.009901,	0.000330
0.558334,	0.009901,	0.000330
0.575000,	0.009901,	0.000330
0.591666,	0.009901,	0.000330
0.608333,	0.009901,	0.000330
0.625000,	0.009901,	0.000330
0.641667,	0.009901,	0.000330
0.658334,	0.009901,	0.000330
0.675000,	0.009901,	0.000330
0.691666,	0.009901,	0.000330
0.708333,	0.009901,	0.000330
0.725000,	0.009901,	0.000330
0.741667,	0.009901,	0.000330
0.758333,	0.009901,	0.000330
0.775000,	0.009901,	0.000330
0.791667,	0.009901,	0.000330
0.808334,	0.009901,	0.000330
0.825000,	0.009901,	0.000330
0.841666,	0.009901,	0.000330
0.858333,	0.009901,	0.000330
0.875000,	0.009901,	0.000330
0.891667,	0.009901,	0.000330
0.908334,	0.009901,	0.000330
0.925000,	0.009901,	0.000330
0.941666,	0.009901,	0.000330
0.958333,	0.009901,	0.000330
0.975000,	0.009901,	0.000330
0.991667,	0.009901,	0.000330
1.008334,	0.016535,	0.000329
1.025000,	0.029802,	0.000327
1.041667,	0.043070,	0.000325
1.058334,	0.056336,	0.000322
1.075000,	0.069604,	0.000320
1.091667,	0.082872,	0.000318
1.108334,	0.096139,	0.000316
1.125000,	0.109406,	0.000314
1.141666,	0.122673,	0.000311
1.158333,	0.135940,	0.000309
1.175000,	0.149208,	0.000307
1.191667,	0.162475,	0.000305
1.208333,	0.175743,	0.000303
1.225000,	0.189010,	0.000300
1.241667,	0.202277,	0.000298
1.258334,	0.215545,	0.000296
1.275000,	0.228812,	0.000294
1.291667,	0.242079,	0.000292
1.308334,	0.255346,	0.000289
1.325000,	0.268614,	0.000287
1.341667,	0.281881,	0.000285
1.358334,	0.295149,	0.000283
1.375000,	0.308416,	0.000281
1.391666,	0.321683,	0.000278
1.408333,	0.334950,	0.000276
1.425000,	0.348218,	0.000274
1.441667,	0.361485,	0.000272
1.458333,	0.374752,	0.000270
1.475000,	0.388020,	0.000267
1.491667,	0.401287,	0.000265
1.508334,	0.414554,	0.000263
1.525000,	0.427822,	0.000261
1.541667,	0.441089,	0.000259
1.558334,	0.454357,	0.000256
1.575000,	0.467624,	0.000254
1.591667,	0.480891,	0.000252
1.608334,	0.494159,	0.000250
1.625000,	0.507426,	0.000248
1.641666,	0.520693,	0.000245
1.658333,	0.533960,	0.000243
0.008334,	0.029703,	0.000330
0.025000,	0.029703,	0.000330
0.041667,	0.029703,	0.000330
0.058334,	0.029703,	0.000330
0.075000,	0.029703,	0.000330
0.091667,	0.029703,	0.000330
0.108334,	0.029703,	0.000330
0.125000,	0.029703,	0.000330
0.141667,	0.029703,	0.000330
0.158334,	0.029703,	0.000330
0.175000,	0.029703,	0.000330
0.191667,	0.029703,	0.000330
0.208334,	0.029703,	0.000330
0.225000,	0.029703,	0.000330
0.241667,	0.029703,	0.000330
0.258333,	0.029703,	0.000330
0.275000,	0.029703,	0.000330
0.291667,	0.029703,	0.000330
0.308333,	0.029703,	0.000330
0.325000,	0.029703,	0.000330
0.341666,	0.029703,	0.000330
0.358333,	0.029703,	0.000330
0.375000,	0.029703,	0.000330
0.391667,	0.029703,	0.000330
0.408334,	0.029703,	0.000330
0.425000,	0.029703,	0.000330
0.441667,	0.029703,	0.000330
0.458334,	0.029703,	0.000330
0.475000,	0.029703,	0.000330
0.491667,	0.029703,	0.000330
0.508333,	0.029703,	0.000330
0.525000,	0.029703,	0.000330
0.541667,	0.029703,	0.000330
0.558334,	0.029703,	0.000330
0.575000,	0.029703,	0.000330
0.591666,	0.029703,	0.000330
0.608333,	0.029703,	0.000330
0.625000,	0.029703,	0.000330
0.641667,	0.029703,	0.000330
0.658334,	0.029703,	0.000330
0.675000,	0.029703,	0.000330
0.691666,	0.029703,	0.000330
0.708333,	0.029703,	0.000330
0.725000,	0.029703,	0.000330
0.741667,	0.029703,	0.000330
0.758333,	0.029703,	0.000330
0.775000,	0.029703,	0.000330
0.791667,	0.029703,	0.000330
0.808334,	0.029703,	0.000330
0.825000,	0.029703,	0.000330
0.841666,	0.029703,	0.000330
0.858333,	0.029703,	0.000330
0.875000,	0.029703,	0.000330
0.891667,	0.029703,	0.000330
0.908334,	0.029703,	0.000330
0.925000,	0.029703,	0.000330
0.941666,	0.029703,	0.000330
0.958333,	0.029703,	0.000330
0.975000,	0.029703,	0.000330
0.991667,	0.029703,	0.000330
1.008334,	0.036270,	0.000329
1.025000,	0.049406,	0.000327
1.041667,	0.062542,	0.000325
1.058334,	0.075677,	0.000322
1.075000,	0.088812,	0.000320
1.091667,	0.101947,	0.000318
1.108334,	0.115083,	0.000316
1.125000,	0.128218,	0.000314
1.141666,	0.141353,	0.000311
1.158333,	0.154489,	0.000309
1.175000,	0.167624,	0.000307
1.191667,	0.180759,	0.000305
1.208333,	0.193895,	0.000303
1.225000,	0.207030,	0.000300
1.241667,	0.220165,	0.000298
1.258334,	0.233300,	0.000296
1.275000,	0.246436,	0.000294
1.291667,	0.259571,	0.000292
1.308334,	0.272706,	0.000289
1.325000,	0.285841,	0.000287
1.341667,	0.298977,	0.000285
1.358334,	0.312112,	0.000283
1.375000,	0.325248,	0.000281
1.391666,	0.338383,	0.000278
1.408333,	0.351518,	0.000276
1.425000,	0.364654,	0.000274
1.441667,	0.377789,	0.000272
1.458333,	0.390924,	0.000270
1.475000,	0.404060,	0.000267
1.491667,	0.417195,	0.000265
1.508334,	0.430330,	0.000263
1.525000,	0.443465,	0.000261
1.541667,	0.456601,	0.000259
1.558334,	0.469736,	0.000256
1.575000,	0.482871,	0.000254
1.591667,	0.496007,	0.000252
1.608334,	0.509142,	0.000250
1.625000,	0.522277,	0.000248
1.641666,	0.535413,	0.000245
1.658333,	0.548548,	0.000243
0.008334,	0.049505,	0.000330
0.025000,	0.049505,	0.000330
0.041667,	0.049505,	0.000330
0.058334,	0.049505,	0.000330
0.075000,	0.049505,	0.000330
0.091667,	0.049505,	0.000330
0.108334,	0.049505,	0.000330
0.125000,	0.049505,	0.000330
0.141667,	0.049505,	0.000330
0.158334,	0.049505,	0.000330
0.175000,	0.049505,	0.000330
0.191667,	0.049505,	0.000330
0.208334,	0.049505,	0.000330
0.225000,	0.049505,	0.000330
0.241667,	0.049505,	0.000330
0.258333,	0.049505,	0.000330
0.275000,	0.049505,	0.000330
0.291667,	0.049505,	0.000330
0.308333,	0.049505,	0.000330
0.325000,	0.049505,	0.000330
0.341666,	0.049505,	0.000330
0.358333,	0.049505,	0.000330
0.375000,	0.049505,	0.000330
0.391667,	0.049505,	0.000330
0.408334,	0.049505,	0.000330
0.425000,	0.049505,	0.000330
0.441667,	0.049505,	0.000330
0.458334,	0.049505,	0.000330
0.475000,	0.049505,	0.000330
0.491667,	0.049505,	0.000330
0.508333,	0.049505,	0.000330
0.525000,	0.049505,	0.000330
0.541667,	0.049505,	0.000330
0.558334,	0.049505,	0.000330
0.575000,	0.049505,	0.000330
0.591666,	0.049505,	0.000330
0.608333,	0.049505,	0.000330
0.625000,	0.049505,	0.000330
0.641667,	0.049505,	0.000330
0.658334,	0.049505,	0.000330
0.675000,	0.049505,	0.000330
0.691666,	0.049505,	0.000330
0.708333,	0.049505,	0.000330
0.725000,	0.049505,	0.000330
0.741667,	0.049505,	0.000330
0.758333,	0.049505,	0.000330
0.775000,	0.049505,	0.000330
0.791667,	0.049505,	0.000330
0.808334,	0.049505,	0.000330
0.825000,	0.049505,	0.000330
0.841666,	0.049505,	0.000330
0.858333,	0.049505,	0.000330
0.875000,	0.049505,	0.000330
0.891667,	0.049505,	0.000330
0.908334,	0.049505,	0.000330
0.925000,	0.049505,	0.000330
0.941666,	0.049505,	0.000330
0.958333,	0.049505,	0.000330
0.975000,	0.049505,	0.000330
0.991667,	0.049505,	0.000330
1.008334,	0.056007,	0.000329
1.025000,	0.069010,	0.000327
1.041667,	0.082013,	0.000325
1.058334,	0.095017,	0.000322
1.075000,	0.108020,	0.000320
1.091667,	0.121023,	0.000318
1.108334,	0.134026,	0.000316
1.125000,	0.147030,	0.000314
1.141666,	0.160033,	0.000311
1.158333,	0.173037,	0.000309
1.175000,	0.186040,	0.000307
1.191667,	0.199043,	0.000305
1.208333,	0.212046,	0.000303
1.225000,	0.225049,	0.000300
1.241667,	0.238053,	0.000298
1.258334,	0.251056,	0.000296
1.275000,	0.264060,	0.000294
1.291667,	0.277062,	0.000292
1.308334,	0.290066,	0.000289
1.325000,	0.303069,	0.000287
1.341667,	0.316072,	0.000285
1.358334,	0.329076,	0.000283
1.375000,	0.342079,	0.000281
1.391666,	0.355082,	0.000278
1.408333,	0.368086,	0.000276
1.425000,	0.381089,	0.000274
1.441667,	0.394093,	0.000272
1.458333,	0.407096,	0.000270
1.475000,	0.420099,	0.000267
1.491667,	0.433102,	0.000265
1.508334,	0.446105,	0.000263
1.525000,	0.459109,	0.000261
1.541667,	0.472112,	0.000259
1.558334,	0.485116,	0.000256
1.575000,	0.498119,	0.000254
1.591667,	0.511122,	0.000252
1.608334,	0.524126,	0.000250
1.625000,	0.537129,	0.000248
1.641666,	0.550132,	0.000245
1.658333,	0.563135,	0.000243
0.008334,	0.069307,	0.000330
0.025000,	0.069307,	0.000330
0.041667,	0.069307,	0.000330
0.058334,	0.069307,	0.000330
0.075000,	0.069307,	0.000330
0.091667,	0.069307,	0.000330
0.108334,	0.069307,	0.000330
0.125000,	0.069307,	0.000330
0.141667,	0.069307,	0.000330
0.158334,	0.069307,	0.000330
0.175000,	0.069307,	0.000330
0.191667,	0.069307,	0.000330
0.208334,	0.069307,	0.000330
0.225000,	0.069307,	0.000330
0.241667,	0.069307,	0.000330
0.258333,	0.069307,	0.000330
0.275000,	0.069307,	0.000330
0.291667,	0.069307,	0.000330
0.308333,	0.069307,	0.000330
0.325000,	0.069307,	0.000330
0.341666,	0.069307,	0.000330
0.358333,	0.069307,	0.000330
0.375000,	0.069307,	0.000330
0.391667,	0.069307,	0.000330
0.408334,	0.069307,	0.000330
0.425000,	0.069307,	0.000330
0.441667,	0.069307,	0.000330
0.458334,	0.069307,	0.000330
0.475000,	0.069307,	0.000330
0.491667,	0.069307,	0.000330
0.508333,	0.069307,	0.000330
0.525000,	0.069307,	0.000330
0.541667,	0.069307,	0.000330
0.558334,	0.069307,	0.000330
0.575000,	0.069307,	0.000330
0.591666,	0.069307,	0.000330
0.608333,	0.069307,	0.000330
0.625000,	0.069307,	0.000330
0.641667,	0.069307,	0.000330
0.658334,	0.069307,	0.000330
0.675000,	0.069307,	0.000330
0.691666,	0.069307,	0.000330
0.708333,	0.069307,	0.000330
0.725000,	0.069307,	0.000330
0.741667,	0.069307,	0.000330
0.758333,	0.069307,	0.000330
0.775000,	0.069307,	0.000330
0.791667,	0.069307,	0.000330
0.808334,	0.069307,	0.000330
0.825000,	0.069307,	0.000330
0.841666,	0.069307,	0.000330
0.858333,	0.069307,	0.000330
0.875000,	0.069307,	0.000330
0.891667,	0.069307,	0.000330
0.908334,	0.069307,	0.000330
0.925000,	0.069307,	0.000330
0.941666,	0.069307,	0.000330
0.958333,	0.069307,	0.000330
0.975000,	0.069307,	0.000330
0.991667,	0.069307,	0.000330
1.008334,	0.075743,	0.000329
1.025000,	0.088614,	0.000327
1.041667,	0.101485,	0.000325
1.058334,	0.114357,	0.000322
1.075000,	0.127227,	0.000320
1.091667,	0.140099,	0.000318
1.108334,	0.152971,	0.000316
1.125000,	0.165842,	0.000314
1.141666,	0.178713,	0.000311
1.158333,	0.191584,	0.000309
1.175000,	0.204456,	0.000307
1.191667,	0.217327,	0.000305
1.208333,	0.230198,	0.000303
1.225000,	0.243069,	0.000300
1.241667,	0.255941,	0.000298
1.258334,	0.268812,	0.000296
1.275000,	0.281683,	0.000294
1.291667,	0.294555,	0.000292
1.308334,	0.307426,	0.000289
1.325000,	0.320297,	0.000287
1.341667,	0.333168,	0.000285
1.358334,	0.346040,	0.000283
1.375000,	0.358911,	0.000281
1.391666,	0.371782,	0.000278
1.408333,	0.384653,	0.000276
1.425000,	0.397525,	0.000274
1.441667,	0.410396,	0.000272
1.458333,	0.423267,	0.000270
1.475000,	0.436138,	0.000267
1.491667,	0.449010,	0.000265
1.508334,	0.461881,	0.000263
1.525000,	0.474753,	0.000261
1.541667,	0.487624,	0.000259
1.558334,	0.500495,	0.000256
1.575000,	0.513366,	0.000254
1.591667,	0.526238,	0.000252
1.608334,	0.539109,	0.000250
1.625000,	0.551980,	0.000248
1.641666,	0.564852,	0.000245
1.658333,	0.577723,	0.000243
0.008334,	0.089109,	0.000330
0.025000,	0.089109,	0.000330
0.041667,	0.089109,	0.000330
0.058334,	0.089109,	0.000330
0.075000,	0.089109,	0.000330
0.091667,	0.089109,	0.000330
0.108334,	0.089109,	0.000330
0.125000,	0.089109,	0.000330
0.141667,	0.089109,	0.000330
0.158334,	0.089109,	0.000330
0.175000,	0.089109,	0.000330
0.191667,	0.089109,	0.000330
0.208334,	0.089109,	0.000330
0.225000,	0.089109,	0.000330
0.241667,	0.089109,	0.000330
0.258333,	0.089109,	0.000330
0.275000,	0.089109,	0.000330
0.291667,	0.089109,	0.000330
0.308333,	0.089109,	0.000330
0.325000,	0.089109,	0.000330
0.341666,	0.089109,	0.000330
0.358333,	0.089109,	0.000330
0.375000,	0.089109,	0.000330
0.391667,	0.089109,	0.000330
0.408334,	0.089109,	0.000330
0.425000,	0.089109,	0.000330
0.441667,	0.089109,	0.000330
0.458334,	0.089109,	0.000330
0.475000,	0.089109,	0.000330
0.491667,	0.089109,	0.000330
0.508333,	0.089109,	0.000330
0.525000,	0.089109,	0.000330
0.541667,	0.089109,	0.000330
0.558334,	0.089109,	0.000330
0.575000,	0.089109,	0.000330
0.591666,	0.089109,	0.000330
0.608333,	0.089109,	0.000330
0.625000,	0.089109,	0.000330
0.641667,	0.089109,	0.000330
0.658334,	0.089109,	0.000330
0.675000,	0.089109,	0.000330
0.691666,	0.089109,	0.000330
0.708333,	0.089109,	0.000330
0.725000,	0.089109,	0.000330
0.741667,	0.089109,	0.000330
0.758333,	0.089109,	0.000330
0.775000,	0.089109,	0.000330
0.791667,	0.089109,	0.000330
0.808334,	0.089109,	0.000330
0.825000,	0.089109,	0.000330
0.841666,	0.089109,	0.000330
0.858333,	0.089109,	0.000330
0.875000,	0.089109,	0.000330
0.891667,	0.089109,	0.000330
0.908334,	0.089109,	0.000330
0.925000,	0.089109,	0.000330
0.941666,	0.089109,	0.000330
0.958333,	0.089109,	0.000330
0.975000,	0.089109,	0.000330
0.991667,	0.089109,	0.000330
1.008334,	0.095478,	0.000329
1.025000,	0.108217,	0.000327
1.041667,	0.120957,	0.000325
1.058334,	0.133697,	0.000322
1.075000,	0.146436,	0.000320
1.091667,	0.159175,	0.000318
1.108334,	0.171915,	0.000316
1.125000,	0.184654,	0.000314
1.141666,	0.197393,	0.000311
1.158333,	0.210132,	0.000309
1.175000,	0.222872,	0.000307
1.191667,	0.235611,	0.000305
1.208333,	0.248350,	0.000303
1.225000,	0.261089,	0.000300
1.241667,	0.273829,	0.000298
1.258334,	0.286567,	0.000296
1.275000,	0.299307,	0.000294
1.291667,	0.312046,	0.000292
1.308334,	0.324786,	0.000289
1.325000,	0.337525,	0.000287
1.341667,	0.350264,	0.000285
1.358334,	0.363004,	0.000283
1.375000,	0.375742,	0.000281
1.391666,	0.388482,	0.000278
1.408333,	0.401221,	0.000276
1.425000,	0.413960,	0.000274
1.441667,	0.426700,	0.000272
1.458333,	0.439439,	0.000270
1.475000,	0.452178,	0.000267
1.491667,	0.464917,	0.000265
1.508334,	0.477657,	0.000263
1.525000,	0.490396,	0.000261
1.541667,	0.503135,	0.000259
1.558334,	0.515875,	0.000256
1.575000,	0.528614,	0.000254
1.591667,	0.541353,	0.000252
1.608334,	0.554092,	0.000250
1.625000,	0.566832,	0.000248
1.641666,	0.579571,	0.000245
1.658333,	0.592310,	0.000243
0.008334,	0.108911,	0.000330
0.025000,	0.108911,	0.000330
0.041667,	0.108911,	0.000330
0.058334,	0.108911,	0.000330
0.075000,	0.108911,	0.000330
0.091667,	0.108911,	0.000330
0.108334,	0.108911,	0.000330
0.125000,	0.108911,	0.000330
0.141667,	0.108911,	0.000330
0.158334,	0.108911,	0.000330
0.175000,	0.108911,	0.000330
0.191667,	0.108911,	0.000330
0.208334,	0.108911,	0.000330
0.225000,	0.108911,	0.000330
0.241667,	0.108911,	0.000330
0.258333,	0.108911,	0.000330
0.275000,	0.108911,	0.000330
0.291667,	0.108911,	0.000330
0.308333,	0.108911,	0.000330
0.325000,	0.108911,	0.000330
0.341666,	0.108911,	0.000330
0.358333,	0.108911,	0.000330
0.375000,	0.108911,	0.000330
0.391667,	0.108911,	0.000330
0.408334,	0.108911,	0.000330
0.425000,	0.108911,	0.000330
0.441667,	0.108911,	0.000330
0.458334,	0.108911,	0.000330
0.475000,	0.108911,	0.000330
0.491667,	0.108911,	0.000330
0.508333,	0.108911,	0.000330
0.525000,	0.108911,	0.000330
0.541667,	0.108911,	0.000330
0.558334,	0.108911,	0.000330
0.575000,	0.108911,	0.000330
0.591666,	0.108911,	0.000330
0.608333,	0.108911,	0.000330
0.625000,	0.108911,	0.000330
0.641667,	0.108911,	0.000330
0.658334,	0.108911,	0.000330
0.675000,	0.108911,	0.000330
0.691666,	0.108911,	0.000330
0.708333,	0.108911,	0.000330
0.725000,	0.108911,	0.000330
0.741667,	0.108911,	0.000330
0.758333,	0.108911,	0.000330
0.775000,	0.108911,	0.000330
0.791667,	0.108911,	0.000330
0.808334,	0.108911,	0.000330
0.825000,	0.108911,	0.000330
0.841666,	0.108911,	0.000330
0.858333,	0.108911,	0.000330
0.875000,	0.108911,	0.000330
0.891667,	0.108911,	0.000330
0.908334,	0.108911,	0.000330
0.925000,	0.108911,	0.000330
0.941666,	0.108911,	0.000330
0.958333,	0.108911,	0.000330
0.975000,	0.108911,	0.000330
0.991667,	0.108911,	0.000330
1.008334,	0.115215,	0.000329
1.025000,	0.127822,	0.000327
1.041667,	0.140429,	0.000325
1.058334,	0.153036,	0.000322
1.075000,	0.165644,	0.000320
1.091667,	0.178251,	0.000318
1.108334,	0.190858,	0.000316
1.125000,	0.203465,	0.000314
1.141666,	0.216073,	0.000311
1.158333,	0.228680,	0.000309
1.175000,	0.241287,	0.000307
1.191667,	0.253895,	0.000305
1.208333,	0.266502,	0.000303
1.225000,	0.279109,	0.000300
1.241667,	0.291716,	0.000298
1.258334,	0.304323,	0.000296
1.275000,	0.316931,	0.000294
1.291667,	0.329538,	0.000292
1.308334,	0.342145,	0.000289
1.325000,	0.354753,	0.000287
1.341667,	0.367360,	0.000285
1.358334,	0.379967,	0.000283
1.375000,	0.392574,	0.000281
1.391666,	0.405181,	0.000278
1.408333,	0.417789,	0.000276
1.425000,	0.430396,	0.000274
1.441667,	0.443003,	0.000272
1.458333,	0.455611,	0.000270
1.475000,	0.468218,	0.000267
1.491667,	0.480825,	0.000265
1.508334,	0.493433,	0.000263
1.525000,	0.506039,	0.000261
1.541667,	0.518647,	0.000259
1.558334,	0.531254,	0.000256
1.575000,	0.543862,	0.000254
1.591667,	0.556469,	0.000252
1.608334,	0.569076,	0.000250
1.625000,	0.581683,	0.000248
1.641666,	0.594291,	0.000245
1.658333,	0.606898,	0.000243
0.008334,	0.128713,	0.000330
0.025000,	0.128713,	0.000330
0.041667,	0.128713,	0.000330
0.058334,	0.128713,	0.000330
0.075000,	0.128713,	0.000330
0.091667,	0.128713,	0.000330
0.108334,	0.128713,	0.000330
0.125000,	0.128713,	0.000330
0.141667,	0.128713,	0.000330
0.158334,	0.128713,	0.000330
0.175000,	0.128713,	0.000330
0.191667,	0.128713,	0.000330
0.208334,	0.128713,	0.000330
0.225000,	0.128713,	0.000330
0.241667,	0.128713,	0.000330
0.258333,	0.128713,	0.000330
0.275000,	0.128713,	0.000330
0.291667,	0.128713,	0.000330
0.308333,	0.128713,	0.000330
0.325000,	0.128713,	0.000330
0.341666,	0.128713,	0.000330
0.358333,	0.128713,	0.000330
0.375000,	0.128713,	0.000330
0.391667,	0.128713,	0.000330
0.408334,	0.128713,	0.000330
0.425000,	0.128713,	0.000330
0.441667,	0.128713,	0.000330
0.458334,	0.128713,	0.000330
0.475000,	0.128713,	0.000330
0.491667,	0.128713,	0.000330
0.508333,	0.128713,	0.000330
0.525000,	0.128713,	0.000330
0.541667,	0.128713,	0.000330
0.558334,	0.128713,	0.000330
0.575000,	0.128713,	0.000330
0.591666,	0.128713,	0.000330
0.608333,	0.128713,	0.000330
0.625000,	0.128713,	0.000330
0.641667,	0.128713,	0.000330
0.658334,	0.128713,	0.000330
0.675000,	0.128713,	0.000330
0.691666,	0.128713,	0.000330
0.708333,	0.128713,	0.000330
0.725000,	0.128713,	0.000330
0.741667,	0.128713,	0.000330
0.758333,	0.128713,	0.000330
0.775000,	0.128713,	0.000330
0.791667,	0.128713,	0.000330
0.808334,	0.128713,	0.000330
0.825000,	0.128713,	0.000330
0.841666,	0.128713,	0.000330
0.858333,	0.128713,	0.000330
0.875000,	0.128713,	0.000330
0.891667,	0.128713,	0.000330
0.908334,	0.128713,	0.000330
0.925000,	0.128713,	0.000330
0.941666,	0.128713,	0.000330
0.958333,	0.128713,	0.000330
0.975000,	0.128713,	0.000330
0.991667,	0.128713,	0.000330
1.008334,	0.134951,	0.000329
1.025000,	0.147425,	0.000327
1.041667,	0.159901,	0.000325
1.058334,	0.172376,	0.000322
1.075000,	0.184852,	0.000320
1.091667,	0.197327,	0.000318
1.108334,	0.209802,	0.000316
1.125000,	0.222278,	0.000314
1.141666,	0.234753,	0.000311
1.158333,	0.247227,	0.000309
1.175000,	0.259703,	0.000307
1.191667,	0.272178,	0.000305
1.208333,	0.284654,	0.000303
1.225000,	0.297129,	0.000300
1.241667,	0.309604,	0.000298
1.258334,	0.322079,	0.000296
1.275000,	0.334554,	0.000294
1.291667,	0.347029,	0.000292
1.308334,	0.359505,	0.000289
1.325000,	0.371980,	0.000287
1.341667,	0.384456,	0.000285
1.358334,	0.396931,	0.000283
1.375000,	0.409406,	0.000281
1.391666,	0.421881,	0.000278
1.408333,	0.434356,	0.000276
1.425000,	0.446831,	0.000274
1.441667,	0.459307,	0.000272
1.458333,	0.471782,	0.000270
1.475000,	0.484258,	0.000267
1.491667,	0.496733,	0.000265
1.508334,	0.509208,	0.000263
1.525000,	0.521683,	0.000261
1.541667,	0.534158,	0.000259
1.558334,	0.546634,	0.000256
1.575000,	0.559109,	0.000254
1.591667,	0.571584,	0.000252
1.608334,	0.584059,	0.000250
1.625000,	0.596535,	0.000248
1.641666,	0.609010,	0.000245
1.658333,	0.621485,	0.000243
0.008334,	0.148515,	0.000330
0.025000,	0.148515,	0.000330
0.041667,	0.148515,	0.000330
0.058334,	0.148515,	0.000330
0.075000,	0.148515,	0.000330
0.091667,	0.148515,	0.000330
0.108334,	0.148515,	0.000330
0.125000,	0.148515,	0.000330
0.141667,	0.148515,	0.000330
0.158334,	0.148515,	0.000330
0.175000,	0.148515,	0.000330
0.191667,	0.148515,	0.000330
0.208334,	0.148515,	0.000330
0.225000,	0.148515,	0.000330
0.241667,	0.148515,	0.000330
0.258333,	0.148515,	0.000330
0.275000,	0.148515,	0.000330
0.291667,	0.148515,	0.000330
0.308333,	0.148515,	0.000330
0.325000,	0.148515,	0.000330
0.341666,	0.148515,	0.000330
0.358333,	0.148515,	0.000330
0.375000,	0.148515,	0.000330
0.391667,	0.148515,	0.000330
0.408334,	0.148515,	0.000330
0.425000,	0.148515,	0.000330
0.441667,	0.148515,	0.000330
0.458334,	0.148515,	0.000330
0.475000,	0.148515,	0.000330
0.491667,	0.148515,	0.000330
0.508333,	0.148515,	0.000330
0.525000,	0.148515,	0.000330
0.541667,	0.148515,	0.000330
0.558334,	0.148515,	0.000330
0.575000,	0.148515,	0.000330
0.591666,	0.148515,	0.000330
0.608333,	0.148515,	0.000330
0.625000,	0.148515,	0.000330
0.641667,	0.148515,	0.000330
0.658334,	0.148515,	0.000330
0.675000,	0.148515,	0.000330
0.691666,	0.148515,	0.000330
0.708333,	0.148515,	0.000330
0.725000,	0.148515,	0.000330
0.741667,	0.148515,	0.000330
0.758333,	0.148515,	0.000330
0.775000,	0.148515,	0.000330
0.791667,	0.148515,	0.000330
0.808334,	0.148515,	0.000330
0.825000,	0.148515,	0.000330
0.841666,	0.148515,	0.000330
0.858333,	0.148515,	0.000330
0.875000,	0.148515,	0.000330
0.891667,	0.148515,	0.000330
0.908334,	0.148515,	0.000330
0.925000,	0.148515,	0.000330
0.941666,	0.148515,	0.000330
0.958333,	0.148515,	0.000330
0.975000,	0.148515,	0.000330
0.991667,	0.148515,	0.000330
1.008334,	0.154687,	0.000329
1.025000,	0.167030,	0.000327
1.041667,	0.179373,	0.000325
1.058334,	0.191717,	0.000322
1.075000,	0.204060,	0.000320
1.091667,	0.216403,	0.000318
1.108334,	0.228746,	0.000316
1.125000,	0.241089,	0.000314
1.141666,	0.253433,	0.000311
1.158333,	0.265776,	0.000309
1.175000,	0.278119,	0.000307
1.191667,	0.290462,	0.000305
1.208333,	0.302806,	0.000303
1.225000,	0.315149,	0.000300
1.241667,	0.327491,	0.000298
1.258334,	0.339835,	0.000296
1.275000,	0.352178,	0.000294
1.291667,	0.364522,	0.000292
1.308334,	0.376865,	0.000289
1.325000,	0.389208,	0.000287
1.341667,	0.401551,	0.000285
1.358334,	0.413895,	0.000283
1.375000,	0.426237,	0.000281
1.391666,	0.438581,	0.000278
1.408333,	0.450924,	0.000276
1.425000,	0.463268,	0.000274
1.441667,	0.475610,	0.000272
1.458333,	0.487954,	0.000270
1.475000,	0.500297,	0.000267
1.491667,	0.512640,	0.000265
1.508334,	0.524984,	0.000263
1.525000,	0.537327,	0.000261
1.541667,	0.549670,	0.000259
1.558334,	0.562013,	0.000256
1.575000,	0.574356,	0.000254
1.591667,	0.586700,	0.000252
1.608334,	0.599043,	0.000250
1.625000,	0.611386,	0.000248
1.641666,	0.623729,	0.000245
1.658333,	0.636073,	0.000243
0.008334,	0.168317,	0.000330
0.025000,	0.168317,	0.000330
0.041667,	0.168317,	0.000330
0.058334,	0.168317,	0.000330
0.075000,	0.168317,	0.000330
0.091667,	0.168317,	0.000330
0.108334,	0.168317,	0.000330
0.125000,	0.168317,	0.000330
0.141667,	0.168317,	0.000330
0.158334,	0.168317,	0.000330
0.175000,	0.168317,	0.000330
0.191667,	0.168317,	0.000330
0.208334,	0.168317,	0.000330
0.225000,	0.168317,	0.000330
0.241667,	0.168317,	0.000330
0.258333,	0.168317,	0.000330
0.275000,	0.168317,	0.000330
0.291667,	0.168317,	0.000330
0.308333,	0.168317,	0.000330
0.325000,	0.168317,	0.000330
0.341666,	0.168317,	0.000330
0.358333,	0.168317,	0.000330
0.375000,	0.168317,	0.000330
0.391667,	0.168317,	0.000330
0.408334,	0.168317,	0.000330
0.425000,	0.168317,	0.000330
0.441667,	0.168317,	0.000330
0.458334,	0.168317,	0.000330
0.475000,	0.168317,	0.000330
0.491667,	0.168317,	0.000330
0.508333,	0.168317,	0.000330
0.525000,	0.168317,	0.000330
0.541667,	0.168317,	0.000330
0.558334,	0.168317,	0.000330
0.575000,	0.168317,	0.000330
0.591666,	0.168317,	0.000330
0.608333,	0.168317,	0.000330
0.625000,	0.168317,	0.000330
0.641667,	0.168317,	0.000330
0.658334,	0.168317,	0.000330
0.675000,	0.168317,	0.000330
0.691666,	0.168317,	0.000330
0.708333,	0.168317,	0.000330
0.725000,	0.168317,	0.000330
0.741667,	0.168317,	0.000330
0.758333,	0.168317,	0.000330
0.775000,	0.168317,	0.000330
0.791667,	0.168317,	0.000330
0.808334,	0.168317,	0.000330
0.825000,	0.168317,	0.000330
0.841666,	0.168317,	0.000330
0.858333,	0.168317,	0.000330
0.875000,	0.168317,	0.000330
0.891667,	0.168317,	0.000330
0.908334,	0.168317,	0.000330
0.925000,	0.168317,	0.000330
0.941666,	0.168317,	0.000330
0.958333,	0.168317,	0.000330
0.975000,	0.168317,	0.000330
0.991667,	0.168317,	0.000330
1.008334,	0.174423,	0.000329
1.025000,	0.186634,	0.000327
1.041667,	0.198845,	0.000325
1.058334,	0.211056,	0.000322
1.075000,	0.223268,	0.000320
1.091667,	0.235479,	0.000318
1.108334,	0.247690,	0.000316
1.125000,	0.259901,	0.000314
1.141666,	0.272112,	0.000311
1.158333,	0.284324,	0.000309
1.175000,	0.296534,	0.000307
1.191667,	0.308746,	0.000305
1.208333,	0.320957,	0.000303
1.225000,	0.333168,	0.000300
1.241667,	0.345380,	0.000298
1.258334,	0.357591,	0.000296
1.275000,	0.369802,	0.000294
1.291667,	0.382013,	0.000292
1.308334,	0.394224,	0.000289
1.325000,	0.406436,	0.000287
1.341667,	0.418647,	0.000285
1.358334,	0.430858,	0.000283
1.375000,	0.443070,	0.000281
1.391666,	0.455280,	0.000278
1.408333,	0.467492,	0.000276
1.425000,	0.479703,	0.000274
1.441667,	0.491914,	0.000272
1.458333,	0.504126,	0.000270
1.475000,	0.516336,	0.000267
1.491667,	0.528548,	0.000265
1.508334,	0.540759,	0.000263
1.525000,	0.552970,	0.000261
1.541667,	0.565182,	0.000259
1.558334,	0.577393,	0.000256
1.575000,	0.589604,	0.000254
1.591667,	0.601815,	0.000252
1.608334,	0.614027,	0.000250
1.625000,	0.626238,	0.000248
1.641666,	0.638449,	0.000245
1.658333,	0.650660,	0.000243
0.008334,	0.188119,	0.000330
0.025000,	0.188119,	0.000330
0.041667,	0.188119,	0.000330
0.058334,	0.188119,	0.000330
0.075000,	0.188119,	0.000330
0.091667,	0.188119,	0.000330
0.108334,	0.188119,	0.000330
0.125000,	0.188119,	0.000330
0.141667,	0.188119,	0.000330
0.158334,	0.188119,	0.000330
0.175000,	0.188119,	0.000330
0.191667,	0.188119,	0.000330
0.208334,	0.188119,	0.000330
0.225000,	0.188119,	0.000330
0.241667,	0.188119,	0.000330
0.258333,	0.188119,	0.000330
0.275000,	0.188119,	0.000330
0.291667,	0.188119,	0.000330
0.308333,	0.188119,	0.000330
0.325000,	0.188119,	0.000330
0.341666,	0.188119,	0.000330
0.358333,	0.188119,	0.000330
0.375000,	0.188119,	0.000330
0.391667,	0.188119,	0.000330
0.408334,	0.188119,	0.000330
0.425000,	0.188119,	0.000330
0.441667,	0.188119,	0.000330
0.458334,	0.188119,	0.000330
0.475000,	0.188119,	0.000330
0.491667,	0.188119,	0.000330
0.508333,	0.188119,	0.000330
0.525000,	0.188119,	0.000330
0.541667,	0.188119,	0.000330
0.558334,	0.188119,	0.000330
0.575000,	0.188119,	0.000330
0.591666,	0.188119,	0.000330
0.608333,	0.188119,	0.000330
0.625000,	0.188119,	0.000330
0.641667,	0.188119,	0.000330
0.658334,	0.188119,	0.000330
0.675000,	0.188119,	0.000330
0.691666,	0.188119,	0.000330
0.708333,	0.188119,	0.000330
0.725000,	0.188119,	0.000330
0.741667,	0.188119,	0.000330
0.758333,	0.188119,	0.000330
0.775000,	0.188119,	0.000330
0.791667,	0.188119,	0.000330
0.808334,	0.188119,	0.000330
0.825000,	0.188119,	0.000330
0.841666,	0.188119,	0.000330
0.858333,	0.188119,	0.000330
0.875000,	0.188119,	0.000330
0.891667,	0.188119,	0.000330
0.908334,	0.188119,	0.000330
0.925000,	0.188119,	0.000330
0.941666,	0.188119,	0.000330
0.958333,	0.188119,	0.000330
0.975000,	0.188119,	0.000330
0.991667,	0.188119,	0.000330
1.008334,	0.194159,	0.000329
1.025000,	0.206237,	0.000327
1.041667,	0.218317,	0.000325
1.058334,	0.230396,	0.000322
1.075000,	0.242475,	0.000320
1.091667,	0.254555,	0.000318
1.108334,	0.266633,	0.000316
1.125000,	0.278713,	0.000314
1.141666,	0.290792,	0.000311
1.158333,	0.302871,	0.000309
1.175000,	0.314951,	0.000307
1.191667,	0.327029,	0.000305
1.208333,	0.339109,	0.000303
1.225000,	0.351188,	0.000300
1.241667,	0.363267,	0.000298
1.258334,	0.375347,	0.000296
1.275000,	0.387425,	0.000294
1.291667,	0.399505,	0.000292
1.308334,	0.411584,	0.000289
1.325000,	0.423663,	0.000287
1.341667,	0.435743,	0.000285
1.358334,	0.447822,	0.000283
1.375000,	0.459901,	0.000281
1.391666,	0.471980,	0.000278
1.408333,	0.484059,	0.000276
1.425000,	0.496139,	0.000274
1.441667,	0.508218,	0.000272
1.458333,	0.520297,	0.000270
1.475000,	0.532376,	0.000267
1.491667,	0.544455,	0.000265
1.508334,	0.556534,	0.000263
1.525000,	0.568614,	0.000261
1.541667,	0.580693,	0.000259
1.558334,	0.592772,	0.000256
1.575000,	0.604851,	0.000254
1.591667,	0.616931,	0.000252
1.608334,	0.629010,	0.000250
1.625000,	0.641089,	0.000248
1.641666,	0.653168,	0.000245
1.658333,	0.665247,	0.000243
0.008334,	0.207921,	0.000330
0.025000,	0.207921,	0.000330
0.041667,	0.207921,	0.000330
0.058334,	0.207921,	0.000330
0.075000,	0.207921,	0.000330
0.091667,	0.207921,	0.000330
0.108334,	0.207921,	0.000330
0.125000,	0.207921,	0.000330
0.141667,	0.207921,	0.000330
0.158334,	0.207921,	0.000330
0.175000,	0.207921,	0.000330
0.191667,	0.207921,	0.000330
0.208334,	0.207921,	0.000330
0.225000,	0.207921,	0.000330
0.241667,	0.207921,	0.000330
0.258333,	0.207921,	0.000330
0.275000,	0.207921,	0.000330
0.291667,	0.207921,	0.000330
0.308333,	0.207921,	0.000330
0.325000,	0.207921,	0.000330
0.341666,	0.207921,	0.000330
0.358333,	0.207921,	0.000330
0.375000,	0.207921,	0.000330
0.391667,	0.207921,	0.000330
0.408334,	0.207921,	0.000330
0.425000,	0.207921,	0.000330
0.441667,	0.207921,	0.000330
0.458334,	0.207921,	0.000330
0.475000,	0.207921,	0.000330
0.491667,	0.207921,	0.000330
0.508333,	0.207921,	0.000330