TITLE = "MeshVolumeStats"
VARIABLES = "X", "Y", "VOL"
ZONE I=250, J=100, DATAPACKING=POINT
0.012000,	0.007425,	0.000356
0.036000,	0.007425,	0.000356
0.060000,	0.007425,	0.000356
0.084000,	0.007425,	0.000356
0.108000,	0.007425,	0.000356
0.132000,	0.007425,	0.000356
0.156000,	0.007425,	0.000356
0.180000,	0.007425,	0.000356
0.204000,	0.007425,	0.000356
0.228000,	0.007425,	0.000356
0.252000,	0.007425,	0.000356
0.276000,	0.007425,	0.000356
0.300000,	0.007425,	0.000356
0.324000,	0.007425,	0.000356
0.348000,	0.007425,	0.000356
0.372000,	0.007425,	0.000356
0.396000,	0.007425,	0.000356
0.420000,	0.007425,	0.000356
0.444000,	0.007425,	0.000356
0.468000,	0.007425,	0.000356
0.492000,	0.007425,	0.000356
0.516000,	0.007425,	0.000356
0.540000,	0.007425,	0.000356
0.564000,	0.007425,	0.000356
0.588000,	0.007425,	0.000356
0.612000,	0.007425,	0.000356
0.636000,	0.007425,	0.000356
0.660000,	0.007425,	0.000356
0.684000,	0.007425,	0.000356
0.708000,	0.007425,	0.000356
0.732000,	0.007425,	0.000356
0.756000,	0.007425,	0.000356
0.780000,	0.007425,	0.000356
0.804000,	0.007425,	0.000356
0.828000,	0.007425,	0.000356
0.852000,	0.007425,	0.000356
0.876000,	0.007425,	0.000356
0.900000,	0.007425,	0.000356
0.924000,	0.007425,	0.000356
0.948000,	0.007425,	0.000356
0.972000,	0.007425,	0.000356
0.996000,	0.009416,	0.000356
1.020000,	0.017376,	0.000354
1.044000,	0.029317,	0.000351
1.068000,	0.041257,	0.000348
1.092000,	0.053198,	0.000346
1.116000,	0.065139,	0.000343
1.140000,	0.077079,	0.000340
1.164000,	0.089020,	0.000337
1.188000,	0.100960,	0.000334
1.212000,	0.112901,	0.000331
1.236000,	0.124842,	0.000328
1.260000,	0.136782,	0.000326
1.284000,	0.148723,	0.000323
1.308000,	0.160663,	0.000320
1.332000,	0.172604,	0.000317
1.356000,	0.184545,	0.000314
1.380000,	0.196485,	0.000311
1.404000,	0.208426,	0.000308
1.428000,	0.220366,	0.000306
1.452000,	0.232307,	0.000303
1.476000,	0.244248,	0.000300
1.500000,	0.253203,	0.000298
1.524000,	0.256188,	0.000297
1.548000,	0.256188,	0.000297
1.572000,	0.256188,	0.000297
1.596000,	0.256188,	0.000297
1.620000,	0.256188,	0.000297
1.644000,	0.256188,	0.000297
1.668000,	0.256188,	0.000297
1.692000,	0.256188,	0.000297
1.716000,	0.256188,	0.000297
1.740000,	0.256188,	0.000297
1.764000,	0.256188,	0.000297
1.788000,	0.256188,	0.000297
1.812000,	0.256188,	0.000297
1.836000,	0.256188,	0.000297
1.860000,	0.256188,	0.000297
1.884000,	0.256188,	0.000297
1.908000,	0.256188,	0.000297
1.932000,	0.256188,	0.000297
1.956000,	0.256188,	0.000297
1.980000,	0.256188,	0.000297
2.004000,	0.256188,	0.000297
2.028000,	0.256188,	0.000297
2.052000,	0.256188,	0.000297
2.076000,	0.256188,	0.000297
2.100000,	0.256188,	0.000297
2.124000,	0.256188,	0.000297
2.148000,	0.256188,	0.000297
2.172000,	0.256188,	0.000297
2.196000,	0.256188,	0.000297
2.220000,	0.256188,	0.000297
2.244000,	0.256188,	0.000297
2.268000,	0.256188,	0.000297
2.292000,	0.256188,	0.000297
2.316000,	0.256188,	0.000297
2.340000,	0.256188,	0.000297
2.364000,	0.256188,	0.000297
2.388000,	0.256188,	0.000297
0.012000,	0.022277,	0.000356
0.036000,	0.022277,	0.000356
0.060000,	0.022277,	0.000356
0.084000,	0.022277,	0.000356
0.108000,	0.022277,	0.000356
0.132000,	0.022277,	0.000356
0.156000,	0.022277,	0.000356
0.180000,	0.022277,	0.000356
0.204000,	0.022277,	0.000356
0.228000,	0.022277,	0.000356
0.252000,	0.022277,	0.000356
0.276000,	0.022277,	0.000356
0.300000,	0.022277,	0.000356
0.324000,	0.022277,	0.000356
0.348000,	0.022277,	0.000356
0.372000,	0.022277,	0.000356
0.396000,	0.022277,	0.000356
0.420000,	0.022277,	0.000356
0.444000,	0.022277,	0.000356
0.468000,	0.022277,	0.000356
0.492000,	0.022277,	0.000356
0.516000,	0.022277,	0.000356
0.540000,	0.022277,	0.000356
0.564000,	0.022277,	0.000356
0.588000,	0.022277,	0.000356
0.612000,	0.022277,	0.000356
0.636000,	0.022277,	0.000356
0.660000,	0.022277,	0.000356
0.684000,	0.022277,	0.000356
0.708000,	0.022277,	0.000356
0.732000,	0.022277,	0.000356
0.756000,	0.022277,	0.000356
0.780000,	0.022277,	0.000356
0.804000,	0.022277,	0.000356
0.828000,	0.022277,	0.000356
0.852000,	0.022277,	0.000356
0.876000,	0.022277,	0.000356
0.900000,	0.022277,	0.000356
0.924000,	0.022277,	0.000356
0.948000,	0.022277,	0.000356
0.972000,	0.022277,	0.000356
0.996000,	0.024247,	0.000356
1.020000,	0.032129,	0.000354
1.044000,	0.043951,	0.000351
1.068000,	0.055772,	0.000348
1.092000,	0.067594,	0.000346
1.116000,	0.079416,	0.000343
1.140000,	0.091238,	0.000340
1.164000,	0.103059,	0.000337
1.188000,	0.114881,	0.000334
1.212000,	0.126703,	0.000331
1.236000,	0.138525,	0.000328
1.260000,	0.150347,	0.000326
1.284000,	0.162168,	0.000323
1.308000,	0.173990,	0.000320
1.332000,	0.185812,	0.000317
1.356000,	0.197634,	0.000314
1.380000,	0.209455,	0.000311
1.404000,	0.221277,	0.000308
1.428000,	0.233099,	0.000306
1.452000,	0.244921,	0.000303
1.476000,	0.256743,	0.000300
1.500000,	0.265609,	0.000298
1.524000,	0.268564,	0.000297
1.548000,	0.268564,	0.000297
1.572000,	0.268564,	0.000297
1.596000,	0.268564,	0.000297
1.620000,	0.268564,	0.000297
1.644000,	0.268564,	0.000297
1.668000,	0.268564,	0.000297
1.692000,	0.268564,	0.000297
1.716000,	0.268564,	0.000297
1.740000,	0.268564,	0.000297
1.764000,	0.268564,	0.000297
1.788000,	0.268564,	0.000297
1.812000,	0.268564,	0.000297
1.836000,	0.268564,	0.000297
1.860000,	0.268564,	0.000297
1.884000,	0.268564,	0.000297
1.908000,	0.268564,	0.000297
1.932000,	0.268564,	0.000297
1.956000,	0.268564,	0.000297
1.980000,	0.268564,	0.000297
2.004000,	0.268564,	0.000297
2.028000,	0.268564,	0.000297
2.052000,	0.268564,	0.000297
2.076000,	0.268564,	0.000297
2.100000,	0.268564,	0.000297
2.124000,	0.268564,	0.000297
2.148000,	0.268564,	0.000297
2.172000,	0.268564,	0.000297
2.196000,	0.268564,	0.000297
2.220000,	0.268564,	0.000297
2.244000,	0.268564,	0.000297
2.268000,	0.268564,	0.000297
2.292000,	0.268564,	0.000297
2.316000,	0.268564,	0.000297
2.340000,	0.268564,	0.000297
2.364000,	0.268564,	0.000297
2.388000,	0.268564,	0.000297
0.012000,	0.037129,	0.000356
0.036000,	0.037129,	0.000356
0.060000,	0.037129,	0.000356
0.084000,	0.037129,	0.000356
0.108000,	0.037129,	0.000356
0.132000,	0.037129,	0.000356
0.156000,	0.037129,	0.000356
0.180000,	0.037129,	0.000356
0.204000,	0.037129,	0.000356
0.228000,	0.037129,	0.000356
0.252000,	0.037129,	0.000356
0.276000,	0.037129,	0.000356
0.300000,	0.037129,	0.000356
0.324000,	0.037129,	0.000356
0.348000,	0.037129,	0.000356
0.372000,	0.037129,	0.000356
0.396000,	0.037129,	0.000356
0.420000,	0.037129,	0.000356
0.444000,	0.037129,	0.000356
0.468000,	0.037129,	0.000356
0.492000,	0.037129,	0.000356
0.516000,	0.037129,	0.000356
0.540000,	0.037129,	0.000356
0.564000,	0.037129,	0.000356
0.588000,	0.037129,	0.000356
0.612000,	0.037129,	0.000356
0.636000,	0.037129,	0.000356
0.660000,	0.037129,	0.000356
0.684000,	0.037129,	0.000356
0.708000,	0.037129,	0.000356
0.732000,	0.037129,	0.000356
0.756000,	0.037129,	0.000356
0.780000,	0.037129,	0.000356
0.804000,	0.037129,	0.000356
0.828000,	0.037129,	0.000356
0.852000,	0.037129,	0.000356
0.876000,	0.037129,	0.000356
0.900000,	0.037129,	0.000356
0.924000,	0.037129,	0.000356
0.948000,	0.037129,	0.000356
0.972000,	0.037129,	0.000356
0.996000,	0.039079,	0.000356
1.020000,	0.046881,	0.000354
1.044000,	0.058584,	0.000351
1.068000,	0.070287,	0.000348
1.092000,	0.081990,	0.000346
1.116000,	0.093693,	0.000343
1.140000,	0.105396,	0.000340
1.164000,	0.117099,	0.000337
1.188000,	0.128802,	0.000334
1.212000,	0.140505,	0.000331
1.236000,	0.152208,	0.000328
1.260000,	0.163911,	0.000326
1.284000,	0.175614,	0.000323
1.308000,	0.187317,	0.000320
1.332000,	0.199020,	0.000317
1.356000,	0.210723,	0.000314
1.380000,	0.222426,	0.000311
1.404000,	0.234129,	0.000308
1.428000,	0.245832,	0.000306
1.452000,	0.257535,	0.000303
1.476000,	0.269238,	0.000300
1.500000,	0.278015,	0.000298
1.524000,	0.280940,	0.000297
1.548000,	0.280940,	0.000297
1.572000,	0.280940,	0.000297
1.596000,	0.280940,	0.000297
1.620000,	0.280940,	0.000297
1.644000,	0.280940,	0.000297
1.668000,	0.280940,	0.000297
1.692000,	0.280940,	0.000297
1.716000,	0.280940,	0.000297
1.740000,	0.280940,	0.000297
1.764000,	0.280940,	0.000297
1.788000,	0.280940,	0.000297
1.812000,	0.280940,	0.000297
1.836000,	0.280940,	0.000297
1.860000,	0.280940,	0.000297
1.884000,	0.280940,	0.000297
1.908000,	0.280940,	0.000297
1.932000,	0.280940,	0.000297
1.956000,	0.280940,	0.000297
1.980000,	0.280940,	0.000297
2.004000,	0.280940,	0.000297
2.028000,	0.280940,	0.000297
2.052000,	0.280940,	0.000297
2.076000,	0.280940,	0.000297
2.100000,	0.280940,	0.000297
2.124000,	0.280940,	0.000297
2.148000,	0.280940,	0.000297
2.172000,	0.280940,	0.000297
2.196000,	0.280940,	0.000297
2.220000,	0.280940,	0.000297
2.244000,	0.280940,	0.000297
2.268000,	0.280940,	0.000297
2.292000,	0.280940,	0.000297
2.316000,	0.280940,	0.000297
2.340000,	0.280940,	0.000297
2.364000,	0.280940,	0.000297
2.388000,	0.280940,	0.000297
0.012000,	0.051980,	0.000356
0.036000,	0.051980,	0.000356
0.060000,	0.051980,	0.000356
0.084000,	0.051980,	0.000356
0.108000,	0.051980,	0.000356
0.132000,	0.051980,	0.000356
0.156000,	0.051980,	0.000356
0.180000,	0.051980,	0.000356
0.204000,	0.051980,	0.000356
0.228000,	0.051980,	0.000356
0.252000,	0.051980,	0.000356
0.276000,	0.051980,	0.000356
0.300000,	0.051980,	0.000356
0.324000,	0.051980,	0.000356
0.348000,	0.051980,	0.000356
0.372000,	0.051980,	0.000356
0.396000,	0.051980,	0.000356
0.420000,	0.051980,	0.000356
0.444000,	0.051980,	0.000356
0.468000,	0.051980,	0.000356
0.492000,	0.051980,	0.000356
0.516000,	0.051980,	0.000356
0.540000,	0.051980,	0.000356
0.564000,	0.051980,	0.000356
0.588000,	0.051980,	0.000356
0.612000,	0.051980,	0.000356
0.636000,	0.051980,	0.000356
0.660000,	0.051980,	0.000356
0.684000,	0.051980,	0.000356
0.708000,	0.051980,	0.000356
0.732000,	0.051980,	0.000356
0.756000,	0.051980,	0.000356
0.780000,	0.051980,	0.000356
0.804000,	0.051980,	0.000356
0.828000,	0.051980,	0.000356
0.852000,	0.051980,	0.000356
0.876000,	0.051980,	0.000356
0.900000,	0.051980,	0.000356
0.924000,	0.051980,	0.000356
0.948000,	0.051980,	0.000356
0.972000,	0.051980,	0.000356
0.996000,	0.053911,	0.000356
1.020000,	0.061634,	0.000354
1.044000,	0.073218,	0.000351
1.068000,	0.084802,	0.000348
1.092000,	0.096386,	0.000346
1.116000,	0.107970,	0.000343
1.140000,	0.119554,	0.000340
1.164000,	0.131139,	0.000337
1.188000,	0.142723,	0.000334
1.212000,	0.154307,	0.000331
1.236000,	0.165891,	0.000328
1.260000,	0.177475,	0.000326
1.284000,	0.189059,	0.000323
1.308000,	0.200644,	0.000320
1.332000,	0.212228,	0.000317
1.356000,	0.223812,	0.000314
1.380000,	0.235396,	0.000311
1.404000,	0.246980,	0.000308
1.428000,	0.258564,	0.000306
1.452000,	0.270149,	0.000303
1.476000,	0.281733,	0.000300
1.500000,	0.290421,	0.000298
1.524000,	0.293317,	0.000297
1.548000,	0.293317,	0.000297
1.572000,	0.293317,	0.000297
1.596000,	0.293317,	0.000297
1.620000,	0.293317,	0.000297
1.644000,	0.293317,	0.000297
1.668000,	0.293317,	0.000297
1.692000,	0.293317,	0.000297
1.716000,	0.293317,	0.000297
1.740000,	0.293317,	0.000297
1.764000,	0.293317,	0.000297
1.788000,	0.293317,	0.000297
1.812000,	0.293317,	0.000297
1.836000,	0.293317,	0.000297
1.860000,	0.293317,	0.000297
1.884000,	0.293317,	0.000297
1.908000,	0.293317,	0.000297
1.932000,	0.293317,	0.000297
1.956000,	0.293317,	0.000297
1.980000,	0.293317,	0.000297
2.004000,	0.293317,	0.000297
2.028000,	0.293317,	0.000297
2.052000,	0.293317,	0.000297
2.076000,	0.293317,	0.000297
2.100000,	0.293317,	0.000297
2.124000,	0.293317,	0.000297
2.148000,	0.293317,	0.000297
2.172000,	0.293317,	0.000297
2.196000,	0.293317,	0.000297
2.220000,	0.293317,	0.000297
2.244000,	0.293317,	0.000297
2.268000,	0.293317,	0.000297
2.292000,	0.293317,	0.000297
2.316000,	0.293317,	0.000297
2.340000,	0.293317,	0.000297
2.364000,	0.293317,	0.000297
2.388000,	0.293317,	0.000297
0.012000,	0.066832,	0.000356
0.036000,	0.066832,	0.000356
0.060000,	0.066832,	0.000356
0.084000,	0.066832,	0.000356
0.108000,	0.066832,	0.000356
0.132000,	0.066832,	0.000356
0.156000,	0.066832,	0.000356
0.180000,	0.066832,	0.000356
0.204000,	0.066832,	0.000356
0.228000,	0.066832,	0.000356
0.252000,	0.066832,	0.000356
0.276000,	0.066832,	0.000356
0.300000,	0.066832,	0.000356
0.324000,	0.066832,	0.000356
0.348000,	0.066832,	0.000356
0.372000,	0.066832,	0.000356
0.396000,	0.066832,	0.000356
0.420000,	0.066832,	0.000356
0.444000,	0.066832,	0.000356
0.468000,	0.066832,	0.000356
0.492000,	0.066832,	0.000356
0.516000,	0.066832,	0.000356
0.540000,	0.066832,	0.000356
0.564000,	0.066832,	0.000356
0.588000,	0.066832,	0.000356
0.612000,	0.066832,	0.000356
0.636000,	0.066832,	0.000356
0.660000,	0.066832,	0.000356
0.684000,	0.066832,	0.000356
0.708000,	0.066832,	0.000356
0.732000,	0.066832,	0.000356
0.756000,	0.066832,	0.000356
0.780000,	0.066832,	0.000356
0.804000,	0.066832,	0.000356
0.828000,	0.066832,	0.000356
0.852000,	0.066832,	0.000356
0.876000,	0.066832,	0.000356
0.900000,	0.066832,	0.000356
0.924000,	0.066832,	0.000356
0.948000,	0.066832,	0.000356
0.972000,	0.066832,	0.000356
0.996000,	0.068742,	0.000356
1.020000,	0.076386,	0.000354
1.044000,	0.087851,	0.000351
1.068000,	0.099317,	0.000348
1.092000,	0.110782,	0.000345
1.116000,	0.122247,	0.000343
1.140000,	0.133713,	0.000340
1.164000,	0.145178,	0.000337
1.188000,	0.156644,	0.000334
1.212000,	0.168109,	0.000331
1.236000,	0.179574,	0.000328
1.260000,	0.191040,	0.000326
1.284000,	0.202505,	0.000323
1.308000,	0.213971,	0.000320
1.332000,	0.225436,	0.000317
1.356000,	0.236901,	0.000314
1.380000,	0.248366,	0.000311
1.404000,	0.259831,	0.000308
1.428000,	0.271297,	0.000306
1.452000,	0.282762,	0.000303
1.476000,	0.294228,	0.000300
1.500000,	0.302827,	0.000298
1.524000,	0.305693,	0.000297
1.548000,	0.305693,	0.000297
1.572000,	0.305693,	0.000297
1.596000,	0.305693,	0.000297
1.620000,	0.305693,	0.000297
1.644000,	0.305693,	0.000297
1.668000,	0.305693,	0.000297
1.692000,	0.305693,	0.000297
1.716000,	0.305693,	0.000297
1.740000,	0.305693,	0.000297
1.764000,	0.305693,	0.000297
1.788000,	0.305693,	0.000297
1.812000,	0.305693,	0.000297
1.836000,	0.305693,	0.000297
1.860000,	0.305693,	0.000297
1.884000,	0.305693,	0.000297
1.908000,	0.305693,	0.000297
1.932000,	0.305693,	0.000297
1.956000,	0.305693,	0.000297
1.980000,	0.305693,	0.000297
2.004000,	0.305693,	0.000297
2.028000,	0.305693,	0.000297
2.052000,	0.305693,	0.000297
2.076000,	0.305693,	0.000297
2.100000,	0.305693,	0.000297
2.124000,	0.305693,	0.000297
2.148000,	0.305693,	0.000297
2.172000,	0.305693,	0.000297
2.196000,	0.305693,	0.000297
2.220000,	0.305693,	0.000297
2.244000,	0.305693,	0.000297
2.268000,	0.305693,	0.000297
2.292000,	0.305693,	0.000297
2.316000,	0.305693,	0.000297
2.340000,	0.305693,	0.000297
2.364000,	0.305693,	0.000297
2.388000,	0.305693,	0.000297
0.012000,	0.081683,	0.000356
0.036000,	0.081683,	0.000356
0.060000,	0.081683,	0.000356
0.084000,	0.081683,	0.000356
0.108000,	0.081683,	0.000356
0.132000,	0.081683,	0.000356
0.156000,	0.081683,	0.000356
0.180000,	0.081683,	0.000356
0.204000,	0.081683,	0.000356
0.228000,	0.081683,	0.000356
0.252000,	0.081683,	0.000356
0.276000,	0.081683,	0.000356
0.300000,	0.081683,	0.000356
0.324000,	0.081683,	0.000356
0.348000,	0.081683,	0.000356
0.372000,	0.081683,	0.000356
0.396000,	0.081683,	0.000356
0.420000,	0.081683,	0.000356
0.444000,	0.081683,	0.000356
0.468000,	0.081683,	0.000356
0.492000,	0.081683,	0.000356
0.516000,	0.081683,	0.000356
0.540000,	0.081683,	0.000356
0.564000,	0.081683,	0.000356
0.588000,	0.081683,	0.000356
0.612000,	0.081683,	0.000356
0.636000,	0.081683,	0.000356
0.660000,	0.081683,	0.000356
0.684000,	0.081683,	0.000356
0.708000,	0.081683,	0.000356
0.732000,	0.081683,	0.000356
0.756000,	0.081683,	0.000356
0.780000,	0.081683,	0.000356
0.804000,	0.081683,	0.000356
0.828000,	0.081683,	0.000356
0.852000,	0.081683,	0.000356
0.876000,	0.081683,	0.000356
0.900000,	0.081683,	0.000356
0.924000,	0.081683,	0.000356
0.948000,	0.081683,	0.000356
0.972000,	0.081683,	0.000356
0.996000,	0.083574,	0.000356
1.020000,	0.091138,	0.000354
1.044000,	0.102485,	0.000351
1.068000,	0.113832,	0.000348
1.092000,	0.125178,	0.000346
1.116000,	0.136525,	0.000343
1.140000,	0.147871,	0.000340
1.164000,	0.159218,	0.000337
1.188000,	0.170564,	0.000334
1.212000,	0.181911,	0.000331
1.236000,	0.193258,	0.000328
1.260000,	0.204604,	0.000326
1.284000,	0.215951,	0.000323
1.308000,	0.227297,	0.000320
1.332000,	0.238644,	0.000317
1.356000,	0.249990,	0.000314
1.380000,	0.261337,	0.000311
1.404000,	0.272683,	0.000308
1.428000,	0.284030,	0.000306
1.452000,	0.295376,	0.000303
1.476000,	0.306723,	0.000300
1.500000,	0.315233,	0.000298
1.524000,	0.318069,	0.000297
1.548000,	0.318069,	0.000297
1.572000,	0.318069,	0.000297
1.596000,	0.318069,	0.000297
1.620000,	0.318069,	0.000297
1.644000,	0.318069,	0.000297
1.668000,	0.318069,	0.000297
1.692000,	0.318069,	0.000297
1.716000,	0.318069,	0.000297
1.740000,	0.318069,	0.000297
1.764000,	0.318069,	0.000297
1.788000,	0.318069,	0.000297
1.812000,	0.318069,	0.000297
1.836000,	0.318069,	0.000297
1.860000,	0.318069,	0.000297
1.884000,	0.318069,	0.000297
1.908000,	0.318069,	0.000297
1.932000,	0.318069,	0.000297
1.956000,	0.318069,	0.000297
1.980000,	0.318069,	0.000297
2.004000,	0.318069,	0.000297
2.028000,	0.318069,	0.000297
2.052000,	0.318069,	0.000297
2.076000,	0.318069,	0.000297
2.100000,	0.318069,	0.000297
2.124000,	0.318069,	0.000297
2.148000,	0.318069,	0.000297
2.172000,	0.318069,	0.000297
2.196000,	0.318069,	0.000297
2.220000,	0.318069,	0.000297
2.244000,	0.318069,	0.000297
2.268000,	0.318069,	0.000297
2.292000,	0.318069,	0.000297
2.316000,	0.318069,	0.000297
2.340000,	0.318069,	0.000297
2.364000,	0.318069,	0.000297
2.388000,	0.318069,	0.000297
0.012000,	0.096534,	0.000356
0.036000,	0.096534,	0.000356
0.060000,	0.096534,	0.000356
0.084000,	0.096534,	0.000356
0.108000,	0.096534,	0.000356
0.132000,	0.096534,	0.000356
0.156000,	0.096534,	0.000356
0.180000,	0.096534,	0.000356
0.204000,	0.096534,	0.000356
0.228000,	0.096534,	0.000356
0.252000,	0.096534,	0.000356
0.276000,	0.096534,	0.000356
0.300000,	0.096534,	0.000356
0.324000,	0.096534,	0.000356
0.348000,	0.096534,	0.000356
0.372000,	0.096534,	0.000356
0.396000,	0.096534,	0.000356
0.420000,	0.096534,	0.000356
0.444000,	0.096534,	0.000356
0.468000,	0.096534,	0.000356
0.492000,	0.096534,	0.000356
0.516000,	0.096534,	0.000356
0.540000,	0.096534,	0.000356
0.564000,	0.096534,	0.000356
0.588000,	0.096534,	0.000356
0.612000,	0.096534,	0.000356
0.636000,	0.096534,	0.000356
0.660000,	0.096534,	0.000356
0.684000,	0.096534,	0.000356
0.708000,	0.096534,	0.000356
0.732000,	0.096534,	0.000356
0.756000,	0.096534,	0.000356
0.780000,	0.096534,	0.000356
0.804000,	0.096534,	0.000356
0.828000,	0.096534,	0.000356
0.852000,	0.096534,	0.000356
0.876000,	0.096534,	0.000356
0.900000,	0.096534,	0.000356
0.924000,	0.096534,	0.000356
0.948000,	0.096534,	0.000356
0.972000,	0.096534,	0.000356
0.996000,	0.098406,	0.000356
1.020000,	0.105891,	0.000354
1.044000,	0.117119,	0.000351
1.068000,	0.128347,	0.000348
1.092000,	0.139574,	0.000345
1.116000,	0.150802,	0.000343
1.140000,	0.162030,	0.000340
1.164000,	0.173257,	0.000337
1.188000,	0.184485,	0.000334
1.212000,	0.195713,	0.000331
1.236000,	0.206940,	0.000328
1.260000,	0.218168,	0.000326
1.284000,	0.229396,	0.000323
1.308000,	0.240624,	0.000320
1.332000,	0.251852,	0.000317
1.356000,	0.263079,	0.000314
1.380000,	0.274307,	0.000311
1.404000,	0.285534,	0.000308
1.428000,	0.296762,	0.000306
1.452000,	0.307990,	0.000303
1.476000,	0.319218,	0.000300
1.500000,	0.327639,	0.000298
1.524000,	0.330446,	0.000297
1.548000,	0.330446,	0.000297
1.572000,	0.330446,	0.000297
1.596000,	0.330446,	0.000297
1.620000,	0.330446,	0.000297
1.644000,	0.330446,	0.000297
1.668000,	0.330446,	0.000297
1.692000,	0.330446,	0.000297
1.716000,	0.330446,	0.000297
1.740000,	0.330446,	0.000297
1.764000,	0.330446,	0.000297
1.788000,	0.330446,	0.000297
1.812000,	0.330446,	0.000297
1.836000,	0.330446,	0.000297
1.860000,	0.330446,	0.000297
1.884000,	0.330446,	0.000297
1.908000,	0.330446,	0.000297
1.932000,	0.330446,	0.000297
1.956000,	0.330446,	0.000297
1.980000,	0.330446,	0.000297
2.004000,	0.330446,	0.000297
2.028000,	0.330446,	0.000297
2.052000,	0.330446,	0.000297
2.076000,	0.330446,	0.000297
2.100000,	0.330446,	0.000297
2.124000,	0.330446,	0.000297
2.148000,	0.330446,	0.000297
2.172000,	0.330446,	0.000297
2.196000,	0.330446,	0.000297
2.220000,	0.330446,	0.000297
2.244000,	0.330446,	0.000297
2.268000,	0.330446,	0.000297
2.292000,	0.330446,	0.000297
2.316000,	0.330446,	0.000297
2.340000,	0.330446,	0.000297
2.364000,	0.330446,	0.000297
2.388000,	0.330446,	0.000297
0.012000,	0.111386,	0.000356
0.036000,	0.111386,	0.000356
0.060000,	0.111386,	0.000356
0.084000,	0.111386,	0.000356
0.108000,	0.111386,	0.000356
0.132000,	0.111386,	0.000356
0.156000,	0.111386,	0.000356
0.180000,	0.111386,	0.000356
0.204000,	0.111386,	0.000356
0.228000,	0.111386,	0.000356
0.252000,	0.111386,	0.000356
0.276000,	0.111386,	0.000356
0.300000,	0.111386,	0.000356
0.324000,	0.111386,	0.000356
0.348000,	0.111386,	0.000356
0.372000,	0.111386,	0.000356
0.396000,	0.111386,	0.000356
0.420000,	0.111386,	0.000356
0.444000,	0.111386,	0.000356
0.468000,	0.111386,	0.000356
0.492000,	0.111386,	0.000356
0.516000,	0.111386,	0.000356
0.540000,	0.111386,	0.000356
0.564000,	0.111386,	0.000356
0.588000,	0.111386,	0.000356
0.612000,	0.111386,	0.000356
0.636000,	0.111386,	0.000356
0.660000,	0.111386,	0.000356
0.684000,	0.111386,	0.000356
0.708000,	0.111386,	0.000356
0.732000,	0.111386,	0.000356
0.756000,	0.111386,	0.000356
0.780000,	0.111386,	0.000356
0.804000,	0.111386,	0.000356
0.828000,	0.111386,	0.000356
0.852000,	0.111386,	0.000356
0.876000,	0.111386,	0.000356
0.900000,	0.111386,	0.000356
0.924000,	0.111386,	0.000356
0.948000,	0.111386,	0.000356
0.972000,	0.111386,	0.000356
0.996000,	0.113237,	0.000356
1.020000,	0.120644,	0.000354
1.044000,	0.131752,	0.000351
1.068000,	0.142862,	0.000348
1.092000,	0.153970,	0.000346
1.116000,	0.165079,	0.000343
1.140000,	0.176188,	0.000340
1.164000,	0.187297,	0.000337
1.188000,	0.198406,	0.000334
1.212000,	0.209515,	0.000331
1.236000,	0.220624,	0.000328
1.260000,	0.231733,	0.000326
1.284000,	0.242842,	0.000323
1.308000,	0.253950,	0.000320
1.332000,	0.265060,	0.000317
1.356000,	0.276168,	0.000314
1.380000,	0.287277,	0.000311
1.404000,	0.298386,	0.000308
1.428000,	0.309495,	0.000306
1.452000,	0.320604,	0.000303
1.476000,	0.331713,	0.000300
1.500000,	0.340045,	0.000298
1.524000,	0.342822,	0.000297
1.548000,	0.342822,	0.000297
1.572000,	0.342822,	0.000297
1.596000,	0.342822,	0.000297
1.620000,	0.342822,	0.000297
1.644000,	0.342822,	0.000297
1.668000,	0.342822,	0.000297
1.692000,	0.342822,	0.000297
1.716000,	0.342822,	0.000297
1.740000,	0.342822,	0.000297
1.764000,	0.342822,	0.000297
1.788000,	0.342822,	0.000297
1.812000,	0.342822,	0.000297
1.836000,	0.342822,	0.000297
1.860000,	0.342822,	0.000297
1.884000,	0.342822,	0.000297
1.908000,	0.342822,	0.000297
1.932000,	0.342822,	0.000297
1.956000,	0.342822,	0.000297
1.980000,	0.342822,	0.000297
2.004000,	0.342822,	0.000297
2.028000,	0.342822,	0.000297
2.052000,	0.342822,	0.000297
2.076000,	0.342822,	0.000297
2.100000,	0.342822,	0.000297
2.124000,	0.342822,	0.000297
2.148000,	0.342822,	0.000297
2.172000,	0.342822,	0.000297
2.196000,	0.342822,	0.000297
2.220000,	0.342822,	0.000297
2.244000,	0.342822,	0.000297
2.268000,	0.342822,	0.000297
2.292000,	0.342822,	0.000297
2.316000,	0.342822,	0.000297
2.340000,	0.342822,	0.000297
2.364000,	0.342822,	0.000297
2.388000,	0.342822,	0.000297
0.012000,	0.126238,	0.000356
0.036000,	0.126238,	0.000356
0.060000,	0.126238,	0.000356
0.084000,	0.126238,	0.000356
0.108000,	0.126238,	0.000356
0.132000,	0.126238,	0.000356
0.156000,	0.126238,	0.000356
0.180000,	0.126238,	0.000356
0.204000,	0.126238,	0.000356
0.228000,	0.126238,	0.000356
0.252000,	0.126238,	0.000356
0.276000,	0.126238,	0.000356
0.300000,	0.126238,	0.000356
0.324000,	0.126238,	0.000356
0.348000,	0.126238,	0.000356
0.372000,	0.126238,	0.000356
0.396000,	0.126238,	0.000356
0.420000,	0.126238,	0.000356
0.444000,	0.126238,	0.000356
0.468000,	0.126238,	0.000356
0.492000,	0.126238,	0.000356
0.516000,	0.126238,	0.000356
0.540000,	0.126238,	0.000356
0.564000,	0.126238,	0.000356
0.588000,	0.126238,	0.000356
0.612000,	0.126238,	0.000356
0.636000,	0.126238,	0.000356
0.660000,	0.126238,	0.000356
0.684000,	0.126238,	0.000356
0.708000,	0.126238,	0.000356
0.732000,	0.126238,	0.000356
0.756000,	0.126238,	0.000356
0.780000,	0.126238,	0.000356
0.804000,	0.126238,	0.000356
0.828000,	0.126238,	0.000356
0.852000,	0.126238,	0.000356
0.876000,	0.126238,	0.000356
0.900000,	0.126238,	0.000356
0.924000,	0.126238,	0.000356
0.948000,	0.126238,	0.000356
0.972000,	0.126238,	0.000356
0.996000,	0.128069,	0.000356
1.020000,	0.135396,	0.000354
1.044000,	0.146386,	0.000351
1.068000,	0.157376,	0.000348
1.092000,	0.168367,	0.000346
1.116000,	0.179357,	0.000343
1.140000,	0.190347,	0.000340
1.164000,	0.201337,	0.000337
1.188000,	0.212327,	0.000334
1.212000,	0.223317,	0.000331
1.236000,	0.234307,	0.000328
1.260000,	0.245297,	0.000326
1.284000,	0.256287,	0.000323
1.308000,	0.267277,	0.000320
1.332000,	0.278268,	0.000317
1.356000,	0.289258,	0.000314
1.380000,	0.300248,	0.000311
1.404000,	0.311238,	0.000308
1.428000,	0.322228,	0.000306
1.452000,	0.333218,	0.000303
1.476000,	0.344208,	0.000300
1.500000,	0.352450,	0.000298
1.524000,	0.355198,	0.000297
1.548000,	0.355198,	0.000297
1.572000,	0.355198,	0.000297
1.596000,	0.355198,	0.000297
1.620000,	0.355198,	0.000297
1.644000,	0.355198,	0.000297
1.668000,	0.355198,	0.000297
1.692000,	0.355198,	0.000297
1.716000,	0.355198,	0.000297
1.740000,	0.355198,	0.000297
1.764000,	0.355198,	0.000297
1.788000,	0.355198,	0.000297
1.812000,	0.355198,	0.000297
1.836000,	0.355198,	0.000297
1.860000,	0.355198,	0.000297
1.884000,	0.355198,	0.000297
1.908000,	0.355198,	0.000297
1.932000,	0.355198,	0.000297
1.956000,	0.355198,	0.000297
1.980000,	0.355198,	0.000297
2.004000,	0.355198,	0.000297
2.028000,	0.355198,	0.000297
2.052000,	0.355198,	0.000297
2.076000,	0.355198,	0.000297
2.100000,	0.355198,	0.000297
2.124000,	0.355198,	0.000297
2.148000,	0.355198,	0.000297
2.172000,	0.355198,	0.000297
2.196000,	0.355198,	0.000297
2.220000,	0.355198,	0.000297
2.244000,	0.355198,	0.000297
2.268000,	0.355198,	0.000297
2.292000,	0.355198,	0.000297
2.316000,	0.355198,	0.000297
2.340000,	0.355198,	0.000297
2.364000,	0.355198,	0.000297
2.388000,	0.355198,	0.000297
0.012000,	0.141089,	0.000356
0.036000,	0.141089,	0.000356
0.060000,	0.141089,	0.000356
0.084000,	0.141089,	0.000356
0.108000,	0.141089,	0.000356
0.132000,	0.141089,	0.000356
0.156000,	0.141089,	0.000356
0.180000,	0.141089,	0.000356
0.204000,	0.141089,	0.000356
0.228000,	0.141089,	0.000356
0.252000,	0.141089,	0.000356
0.276000,	0.141089,	0.000356
0.300000,	0.141089,	0.000356
0.324000,	0.141089,	0.000356
0.348000,	0.141089,	0.000356
0.372000,	0.141089,	0.000356
0.396000,	0.141089,	0.000356
0.420000,	0.141089,	0.000356
0.444000,	0.141089,	0.000356
0.468000,	0.141089,	0.000356
0.492000,	0.141089,	0.000356
0.516000,	0.141089,	0.000356
0.540000,	0.141089,	0.000356
0.564000,	0.141089,	0.000356
0.588000,	0.141089,	0.000356
0.612000,	0.141089,	0.000356
0.636000,	0.141089,	0.000356
0.660000,	0.141089,	0.000356
0.684000,	0.141089,	0.000356
0.708000,	0.141089,	0.000356
0.732000,	0.141089,	0.000356
0.756000,	0.141089,	0.000356
0.780000,	0.141089,	0.000356
0.804000,	0.141089,	0.000356
0.828000,	0.141089,	0.000356
0.852000,	0.141089,	0.000356
0.876000,	0.141089,	0.000356
0.900000,	0.141089,	0.000356
0.924000,	0.141089,	0.000356
0.948000,	0.141089,	0.000356
0.972000,	0.141089,	0.000356
0.996000,	0.142901,	0.000356
1.020000,	0.150149,	0.000354
1.044000,	0.161020,	0.000351
1.068000,	0.171891,	0.000348
1.092000,	0.182762,	0.000345
1.116000,	0.193634,	0.000343
1.140000,	0.204505,	0.000340
1.164000,	0.215376,	0.000337
1.188000,	0.226247,	0.000334
1.212000,	0.237119,	0.000331
1.236000,	0.247990,	0.000328
1.260000,	0.258862,	0.000326
1.284000,	0.269733,	0.000323
1.308000,	0.280604,	0.000320
1.332000,	0.291475,	0.000317
1.356000,	0.302347,	0.000314
1.380000,	0.313218,	0.000311
1.404000,	0.324089,	0.000308
1.428000,	0.334960,	0.000306
1.452000,	0.345832,	0.000303
1.476000,	0.356703,	0.000300
1.500000,	0.364856,	0.000298
1.524000,	0.367574,	0.000297
1.548000,	0.367574,	0.000297
1.572000,	0.367574,	0.000297
1.596000,	0.367574,	0.000297
1.620000,	0.367574,	0.000297
1.644000,	0.367574,	0.000297
1.668000,	0.367574,	0.000297
1.692000,	0.367574,	0.000297
1.716000,	0.367574,	0.000297
1.740000,	0.367574,	0.000297
1.764000,	0.367574,	0.000297
1.788000,	0.367574,	0.000297
1.812000,	0.367574,	0.000297
1.836000,	0.367574,	0.000297
1.860000,	0.367574,	0.000297
1.884000,	0.367574,	0.000297
1.908000,	0.367574,	0.000297
1.932000,	0.367574,	0.000297
1.956000,	0.367574,	0.000297
1.980000,	0.367574,	0.000297
2.004000,	0.367574,	0.000297
2.028000,	0.367574,	0.000297
2.052000,	0.367574,	0.000297
2.076000,	0.367574,	0.000297
2.100000,	0.367574,	0.000297
2.124000,	0.367574,	0.000297
2.148000,	0.367574,	0.000297
2.172000,	0.367574,	0.000297
2.196000,	0.367574,	0.000297
2.220000,	0.367574,	0.000297
2.244000,	0.367574,	0.000297
2.268000,	0.367574,	0.000297
2.292000,	0.367574,	0.000297
2.316000,	0.367574,	0.000297
2.340000,	0.367574,	0.000297
2.364000,	0.367574,	0.000297
2.388000,	0.367574,	0.000297
0.012000,	0.155941,	0.000356
0.036000,	0.155941,	0.000356
0.060000,	0.155941,	0.000356
0.084000,	0.155941,	0.000356
0.108000,	0.155941,	0.000356
0.132000,	0.155941,	0.000356
0.156000,	0.155941,	0.000356
0.180000,	0.155941,	0.000356
0.204000,	0.155941,	0.000356
0.228000,	0.155941,	0.000356
0.252000,	0.155941,	0.000356
0.276000,	0.155941,	0.000356
0.300000,	0.155941,	0.000356
0.324000,	0.155941,	0.000356
0.348000,	0.155941,	0.000356
0.372000,	0.155941,	0.000356
0.396000,	0.155941,	0.000356
0.420000,	0.155941,	0.000356
0.444000,	0.155941,	0.000356
0.468000,	0.155941,	0.000356
0.492000,	0.155941,	0.000356
0.516000,	0.155941,	0.000356
0.540000,	0.155941,	0.000356
0.564000,	0.155941,	0.000356
0.588000,	0.155941,	0.000356
0.612000,	0.155941,	0.000356
0.636000,	0.155941,	0.000356
0.660000,	0.155941,	0.000356
0.684000,	0.155941,	0.000356
0.708000,	0.155941,	0.000356
0.732000,	0.155941,	0.000356