TITLE = "MeshVolumeStats"
VARIABLES = "X", "Y", "VOL"
ZONE I=100, J=100, DATAPACKING=POINT
0.015000,	0.004951,	0.000297
0.045000,	0.004951,	0.000297
0.075000,	0.004951,	0.000297
0.105000,	0.004951,	0.000297
0.135000,	0.004951,	0.000297
0.165000,	0.004951,	0.000297
0.195000,	0.004951,	0.000297
0.225000,	0.004951,	0.000297
0.255000,	0.004951,	0.000297
0.285000,	0.004951,	0.000297
0.315000,	0.004951,	0.000297
0.345000,	0.004951,	0.000297
0.375000,	0.004951,	0.000297
0.405000,	0.004951,	0.000297
0.435000,	0.004951,	0.000297
0.465000,	0.004951,	0.000297
0.495000,	0.004951,	0.000297
0.525000,	0.004951,	0.000297
0.555000,	0.004951,	0.000297
0.585000,	0.004951,	0.000297
0.615000,	0.004951,	0.000297
0.645000,	0.004951,	0.000297
0.675000,	0.004951,	0.000297
0.705000,	0.004951,	0.000297
0.735000,	0.004951,	0.000297
0.765000,	0.004951,	0.000297
0.795000,	0.004951,	0.000297
0.825000,	0.004951,	0.000297
0.855000,	0.004951,	0.000297
0.885000,	0.004951,	0.000297
0.915000,	0.004951,	0.000297
0.945000,	0.004951,	0.000297
0.975000,	0.004951,	0.000297
1.005000,	0.007438,	0.000296
1.035000,	0.013657,	0.000294
1.065000,	0.021120,	0.000292
1.095000,	0.028583,	0.000290
1.125000,	0.036046,	0.000288
1.155000,	0.043509,	0.000286
1.185000,	0.050971,	0.000283
1.215000,	0.058435,	0.000281
1.245000,	0.065897,	0.000279
1.275000,	0.073360,	0.000277
1.305000,	0.080823,	0.000274
1.335000,	0.088286,	0.000272
1.365000,	0.095749,	0.000270
1.395000,	0.103211,	0.000268
1.425000,	0.110674,	0.000265
1.455000,	0.118138,	0.000263
1.485000,	0.125600,	0.000261
1.515000,	0.133063,	0.000259
1.545000,	0.140526,	0.000257
1.575000,	0.147989,	0.000254
1.605000,	0.155452,	0.000252
1.635000,	0.162915,	0.000250
1.665000,	0.170378,	0.000248
1.695000,	0.177841,	0.000245
1.725000,	0.185303,	0.000243
1.755000,	0.192766,	0.000241
1.785000,	0.200229,	0.000239
1.815000,	0.207692,	0.000237
1.845000,	0.215155,	0.000234
1.875000,	0.222617,	0.000232
1.905000,	0.230080,	0.000230
1.935000,	0.237544,	0.000228
1.965000,	0.245006,	0.000225
1.995000,	0.251225,	0.000224
2.025000,	0.253713,	0.000223
2.055000,	0.253713,	0.000223
2.085000,	0.253713,	0.000223
2.115000,	0.253713,	0.000223
2.145000,	0.253713,	0.000223
2.175000,	0.253713,	0.000223
2.205000,	0.253713,	0.000223
2.235000,	0.253713,	0.000223
2.265000,	0.253713,	0.000223
2.295000,	0.253713,	0.000223
2.325000,	0.253713,	0.000223
2.355000,	0.253713,	0.000223
2.385000,	0.253713,	0.000223
2.415000,	0.253713,	0.000223
2.445000,	0.253713,	0.000223
2.475000,	0.253713,	0.000223
2.505000,	0.253713,	0.000223
2.535000,	0.253713,	0.000223
2.565000,	0.253713,	0.000223
2.595000,	0.253713,	0.000223
2.625000,	0.253713,	0.000223
2.655000,	0.253713,	0.000223
2.685000,	0.253713,	0.000223
2.715000,	0.253713,	0.000223
2.745000,	0.253713,	0.000223
2.775000,	0.253713,	0.000223
2.805000,	0.253713,	0.000223
2.835000,	0.253713,	0.000223
2.865000,	0.253713,	0.000223
2.895000,	0.253713,	0.000223
2.925000,	0.253713,	0.000223
2.955000,	0.253713,	0.000223
2.985000,	0.253713,	0.000223
0.015000,	0.014852,	0.000297
0.045000,	0.014852,	0.000297
0.075000,	0.014852,	0.000297
0.105000,	0.014852,	0.000297
0.135000,	0.014852,	0.000297
0.165000,	0.014852,	0.000297
0.195000,	0.014852,	0.000297
0.225000,	0.014852,	0.000297
0.255000,	0.014852,	0.000297
0.285000,	0.014852,	0.000297
0.315000,	0.014852,	0.000297
0.345000,	0.014852,	0.000297
0.375000,	0.014852,	0.000297
0.405000,	0.014852,	0.000297
0.435000,	0.014852,	0.000297
0.465000,	0.014852,	0.000297
0.495000,	0.014852,	0.000297
0.525000,	0.014852,	0.000297
0.555000,	0.014852,	0.000297
0.585000,	0.014852,	0.000297
0.615000,	0.014852,	0.000297
0.645000,	0.014852,	0.000297
0.675000,	0.014852,	0.000297
0.705000,	0.014852,	0.000297
0.735000,	0.014852,	0.000297
0.765000,	0.014852,	0.000297
0.795000,	0.014852,	0.000297
0.825000,	0.014852,	0.000297
0.855000,	0.014852,	0.000297
0.885000,	0.014852,	0.000297
0.915000,	0.014852,	0.000297
0.945000,	0.014852,	0.000297
0.975000,	0.014852,	0.000297
1.005000,	0.017314,	0.000296
1.035000,	0.023471,	0.000294
1.065000,	0.030860,	0.000292
1.095000,	0.038249,	0.000290
1.125000,	0.045637,	0.000288
1.155000,	0.053026,	0.000286
1.185000,	0.060414,	0.000283
1.215000,	0.067803,	0.000281
1.245000,	0.075192,	0.000279
1.275000,	0.082580,	0.000277
1.305000,	0.089969,	0.000274
1.335000,	0.097358,	0.000272
1.365000,	0.104746,	0.000270
1.395000,	0.112135,	0.000268
1.425000,	0.119523,	0.000265
1.455000,	0.126912,	0.000263
1.485000,	0.134301,	0.000261
1.515000,	0.141689,	0.000259
1.545000,	0.149078,	0.000257
1.575000,	0.156467,	0.000254
1.605000,	0.163855,	0.000252
1.635000,	0.171244,	0.000250
1.665000,	0.178632,	0.000248
1.695000,	0.186021,	0.000245
1.725000,	0.193410,	0.000243
1.755000,	0.200798,	0.000241
1.785000,	0.208187,	0.000239
1.815000,	0.215576,	0.000237
1.845000,	0.222964,	0.000234
1.875000,	0.230353,	0.000232
1.905000,	0.237741,	0.000230
1.935000,	0.245130,	0.000228
1.965000,	0.252518,	0.000225
1.995000,	0.258675,	0.000223
2.025000,	0.261138,	0.000223
2.055000,	0.261138,	0.000223
2.085000,	0.261138,	0.000223
2.115000,	0.261138,	0.000223
2.145000,	0.261138,	0.000223
2.175000,	0.261138,	0.000223
2.205000,	0.261138,	0.000223
2.235000,	0.261138,	0.000223
2.265000,	0.261138,	0.000223
2.295000,	0.261138,	0.000223
2.325000,	0.261138,	0.000223
2.355000,	0.261138,	0.000223
2.385000,	0.261138,	0.000223
2.415000,	0.261138,	0.000223
2.445000,	0.261138,	0.000223
2.475000,	0.261138,	0.000223
2.505000,	0.261138,	0.000223
2.535000,	0.261138,	0.000223
2.565000,	0.261138,	0.000223
2.595000,	0.261138,	0.000223
2.625000,	0.261138,	0.000223
2.655000,	0.261138,	0.000223
2.685000,	0.261138,	0.000223
2.715000,	0.261138,	0.000223
2.745000,	0.261138,	0.000223
2.775000,	0.261138,	0.000223
2.805000,	0.261138,	0.000223
2.835000,	0.261138,	0.000223
2.865000,	0.261138,	0.000223
2.895000,	0.261138,	0.000223
2.925000,	0.261138,	0.000223
2.955000,	0.261138,	0.000223
2.985000,	0.261138,	0.000223
0.015000,	0.024753,	0.000297
0.045000,	0.024753,	0.000297
0.075000,	0.024753,	0.000297
0.105000,	0.024753,	0.000297
0.135000,	0.024753,	0.000297
0.165000,	0.024753,	0.000297
0.195000,	0.024753,	0.000297
0.225000,	0.024753,	0.000297
0.255000,	0.024753,	0.000297
0.285000,	0.024753,	0.000297
0.315000,	0.024753,	0.000297
0.345000,	0.024753,	0.000297
0.375000,	0.024753,	0.000297
0.405000,	0.024753,	0.000297
0.435000,	0.024753,	0.000297
0.465000,	0.024753,	0.000297
0.495000,	0.024753,	0.000297
0.525000,	0.024753,	0.000297
0.555000,	0.024753,	0.000297
0.585000,	0.024753,	0.000297
0.615000,	0.024753,	0.000297
0.645000,	0.024753,	0.000297
0.675000,	0.024753,	0.000297
0.705000,	0.024753,	0.000297
0.735000,	0.024753,	0.000297
0.765000,	0.024753,	0.000297
0.795000,	0.024753,	0.000297
0.825000,	0.024753,	0.000297
0.855000,	0.024753,	0.000297
0.885000,	0.024753,	0.000297
0.915000,	0.024753,	0.000297
0.945000,	0.024753,	0.000297
0.975000,	0.024753,	0.000297
1.005000,	0.027190,	0.000296
1.035000,	0.033286,	0.000294
1.065000,	0.040600,	0.000292
1.095000,	0.047914,	0.000290
1.125000,	0.055229,	0.000288
1.155000,	0.062543,	0.000286
1.185000,	0.069858,	0.000283
1.215000,	0.077172,	0.000281
1.245000,	0.084486,	0.000279
1.275000,	0.091801,	0.000277
1.305000,	0.099115,	0.000274
1.335000,	0.106429,	0.000272
1.365000,	0.113744,	0.000270
1.395000,	0.121058,	0.000268
1.425000,	0.128373,	0.000265
1.455000,	0.135687,	0.000263
1.485000,	0.143001,	0.000261
1.515000,	0.150315,	0.000259
1.545000,	0.157630,	0.000257
1.575000,	0.164944,	0.000254
1.605000,	0.172259,	0.000252
1.635000,	0.179573,	0.000250
1.665000,	0.186887,	0.000248
1.695000,	0.194202,	0.000245
1.725000,	0.201516,	0.000243
1.755000,	0.208831,	0.000241
1.785000,	0.216145,	0.000239
1.815000,	0.223459,	0.000237
1.845000,	0.230774,	0.000234
1.875000,	0.238088,	0.000232
1.905000,	0.245402,	0.000230
1.935000,	0.252717,	0.000228
1.965000,	0.260031,	0.000225
1.995000,	0.266126,	0.000224
2.025000,	0.268564,	0.000223
2.055000,	0.268564,	0.000223
2.085000,	0.268564,	0.000223
2.115000,	0.268564,	0.000223
2.145000,	0.268564,	0.000223
2.175000,	0.268564,	0.000223
2.205000,	0.268564,	0.000223
2.235000,	0.268564,	0.000223
2.265000,	0.268564,	0.000223
2.295000,	0.268564,	0.000223
2.325000,	0.268564,	0.000223
2.355000,	0.268564,	0.000223
2.385000,	0.268564,	0.000223
2.415000,	0.268564,	0.000223
2.445000,	0.268564,	0.000223
2.475000,	0.268564,	0.000223
2.505000,	0.268564,	0.000223
2.535000,	0.268564,	0.000223
2.565000,	0.268564,	0.000223
2.595000,	0.268564,	0.000223
2.625000,	0.268564,	0.000223
2.655000,	0.268564,	0.000223
2.685000,	0.268564,	0.000223
2.715000,	0.268564,	0.000223
2.745000,	0.268564,	0.000223
2.775000,	0.268564,	0.000223
2.805000,	0.268564,	0.000223
2.835000,	0.268564,	0.000223
2.865000,	0.268564,	0.000223
2.895000,	0.268564,	0.000223
2.925000,	0.268564,	0.000223
2.955000,	0.268564,	0.000223
2.985000,	0.268564,	0.000223
0.015000,	0.034654,	0.000297
0.045000,	0.034654,	0.000297
0.075000,	0.034654,	0.000297
0.105000,	0.034654,	0.000297
0.135000,	0.034654,	0.000297
0.165000,	0.034654,	0.000297
0.195000,	0.034654,	0.000297
0.225000,	0.034654,	0.000297
0.255000,	0.034654,	0.000297
0.285000,	0.034654,	0.000297
0.315000,	0.034654,	0.000297
0.345000,	0.034654,	0.000297
0.375000,	0.034654,	0.000297
0.405000,	0.034654,	0.000297
0.435000,	0.034654,	0.000297
0.465000,	0.034654,	0.000297
0.495000,	0.034654,	0.000297
0.525000,	0.034654,	0.000297
0.555000,	0.034654,	0.000297
0.585000,	0.034654,	0.000297
0.615000,	0.034654,	0.000297
0.645000,	0.034654,	0.000297
0.675000,	0.034654,	0.000297
0.705000,	0.034654,	0.000297
0.735000,	0.034654,	0.000297
0.765000,	0.034654,	0.000297
0.795000,	0.034654,	0.000297
0.825000,	0.034654,	0.000297
0.855000,	0.034654,	0.000297
0.885000,	0.034654,	0.000297
0.915000,	0.034654,	0.000297
0.945000,	0.034654,	0.000297
0.975000,	0.034654,	0.000297
1.005000,	0.037067,	0.000296
1.035000,	0.043100,	0.000294
1.065000,	0.050340,	0.000292
1.095000,	0.057580,	0.000290
1.125000,	0.064821,	0.000288
1.155000,	0.072061,	0.000286
1.185000,	0.079301,	0.000283
1.215000,	0.086541,	0.000281
1.245000,	0.093781,	0.000279
1.275000,	0.101021,	0.000277
1.305000,	0.108262,	0.000274
1.335000,	0.115501,	0.000272
1.365000,	0.122742,	0.000270
1.395000,	0.129981,	0.000268
1.425000,	0.137222,	0.000265
1.455000,	0.144462,	0.000263
1.485000,	0.151702,	0.000261
1.515000,	0.158942,	0.000259
1.545000,	0.166182,	0.000257
1.575000,	0.173422,	0.000254
1.605000,	0.180662,	0.000252
1.635000,	0.187902,	0.000250
1.665000,	0.195142,	0.000248
1.695000,	0.202382,	0.000245
1.725000,	0.209623,	0.000243
1.755000,	0.216863,	0.000241
1.785000,	0.224103,	0.000239
1.815000,	0.231343,	0.000237
1.845000,	0.238583,	0.000234
1.875000,	0.245823,	0.000232
1.905000,	0.253063,	0.000230
1.935000,	0.260303,	0.000228
1.965000,	0.267543,	0.000225
1.995000,	0.273577,	0.000224
2.025000,	0.275990,	0.000223
2.055000,	0.275990,	0.000223
2.085000,	0.275990,	0.000223
2.115000,	0.275990,	0.000223
2.145000,	0.275990,	0.000223
2.175000,	0.275990,	0.000223
2.205000,	0.275990,	0.000223
2.235000,	0.275990,	0.000223
2.265000,	0.275990,	0.000223
2.295000,	0.275990,	0.000223
2.325000,	0.275990,	0.000223
2.355000,	0.275990,	0.000223
2.385000,	0.275990,	0.000223
2.415000,	0.275990,	0.000223
2.445000,	0.275990,	0.000223
2.475000,	0.275990,	0.000223
2.505000,	0.275990,	0.000223
2.535000,	0.275990,	0.000223
2.565000,	0.275990,	0.000223
2.595000,	0.275990,	0.000223
2.625000,	0.275990,	0.000223
2.655000,	0.275990,	0.000223
2.685000,	0.275990,	0.000223
2.715000,	0.275990,	0.000223
2.745000,	0.275990,	0.000223
2.775000,	0.275990,	0.000223
2.805000,	0.275990,	0.000223
2.835000,	0.275990,	0.000223
2.865000,	0.275990,	0.000223
2.895000,	0.275990,	0.000223
2.925000,	0.275990,	0.000223
2.955000,	0.275990,	0.000223
2.985000,	0.275990,	0.000223
0.015000,	0.044554,	0.000297
0.045000,	0.044554,	0.000297
0.075000,	0.044554,	0.000297
0.105000,	0.044554,	0.000297
0.135000,	0.044554,	0.000297
0.165000,	0.044554,	0.000297
0.195000,	0.044554,	0.000297
0.225000,	0.044554,	0.000297
0.255000,	0.044554,	0.000297
0.285000,	0.044554,	0.000297
0.315000,	0.044554,	0.000297
0.345000,	0.044554,	0.000297
0.375000,	0.044554,	0.000297
0.405000,	0.044554,	0.000297
0.435000,	0.044554,	0.000297
0.465000,	0.044554,	0.000297
0.495000,	0.044554,	0.000297
0.525000,	0.044554,	0.000297
0.555000,	0.044554,	0.000297
0.585000,	0.044554,	0.000297
0.615000,	0.044554,	0.000297
0.645000,	0.044554,	0.000297
0.675000,	0.044554,	0.000297
0.705000,	0.044554,	0.000297
0.735000,	0.044554,	0.000297
0.765000,	0.044554,	0.000297
0.795000,	0.044554,	0.000297
0.825000,	0.044554,	0.000297
0.855000,	0.044554,	0.000297
0.885000,	0.044554,	0.000297
0.915000,	0.044554,	0.000297
0.945000,	0.044554,	0.000297
0.975000,	0.044554,	0.000297
1.005000,	0.046943,	0.000296
1.035000,	0.052915,	0.000294
1.065000,	0.060081,	0.000292
1.095000,	0.067247,	0.000290
1.125000,	0.074412,	0.000288
1.155000,	0.081578,	0.000286
1.185000,	0.088744,	0.000283
1.215000,	0.095910,	0.000281
1.245000,	0.103075,	0.000279
1.275000,	0.110241,	0.000277
1.305000,	0.117407,	0.000274
1.335000,	0.124573,	0.000272
1.365000,	0.131739,	0.000270
1.395000,	0.138905,	0.000268
1.425000,	0.146071,	0.000265
1.455000,	0.153236,	0.000263
1.485000,	0.160402,	0.000261
1.515000,	0.167568,	0.000259
1.545000,	0.174734,	0.000257
1.575000,	0.181899,	0.000254
1.605000,	0.189065,	0.000252
1.635000,	0.196231,	0.000250
1.665000,	0.203397,	0.000248
1.695000,	0.210563,	0.000245
1.725000,	0.217729,	0.000243
1.755000,	0.224895,	0.000241
1.785000,	0.232061,	0.000239
1.815000,	0.239227,	0.000237
1.845000,	0.246392,	0.000234
1.875000,	0.253558,	0.000232
1.905000,	0.260724,	0.000230
1.935000,	0.267890,	0.000228
1.965000,	0.275056,	0.000225
1.995000,	0.281027,	0.000224
2.025000,	0.283416,	0.000223
2.055000,	0.283416,	0.000223
2.085000,	0.283416,	0.000223
2.115000,	0.283416,	0.000223
2.145000,	0.283416,	0.000223
2.175000,	0.283416,	0.000223
2.205000,	0.283416,	0.000223
2.235000,	0.283416,	0.000223
2.265000,	0.283416,	0.000223
2.295000,	0.283416,	0.000223
2.325000,	0.283416,	0.000223
2.355000,	0.283416,	0.000223
2.385000,	0.283416,	0.000223
2.415000,	0.283416,	0.000223
2.445000,	0.283416,	0.000223
2.475000,	0.283416,	0.000223
2.505000,	0.283416,	0.000223
2.535000,	0.283416,	0.000223
2.565000,	0.283416,	0.000223
2.595000,	0.283416,	0.000223
2.625000,	0.283416,	0.000223
2.655000,	0.283416,	0.000223
2.685000,	0.283416,	0.000223
2.715000,	0.283416,	0.000223
2.745000,	0.283416,	0.000223
2.775000,	0.283416,	0.000223
2.805000,	0.283416,	0.000223
2.835000,	0.283416,	0.000223
2.865000,	0.283416,	0.000223
2.895000,	0.283416,	0.000223
2.925000,	0.283416,	0.000223
2.955000,	0.283416,	0.000223
2.985000,	0.283416,	0.000223
0.015000,	0.054456,	0.000297
0.045000,	0.054456,	0.000297
0.075000,	0.054456,	0.000297
0.105000,	0.054456,	0.000297
0.135000,	0.054456,	0.000297
0.165000,	0.054456,	0.000297
0.195000,	0.054456,	0.000297
0.225000,	0.054456,	0.000297
0.255000,	0.054456,	0.000297
0.285000,	0.054456,	0.000297
0.315000,	0.054456,	0.000297
0.345000,	0.054456,	0.000297
0.375000,	0.054456,	0.000297
0.405000,	0.054456,	0.000297
0.435000,	0.054456,	0.000297
0.465000,	0.054456,	0.000297
0.495000,	0.054456,	0.000297
0.525000,	0.054456,	0.000297
0.555000,	0.054456,	0.000297
0.585000,	0.054456,	0.000297
0.615000,	0.054456,	0.000297
0.645000,	0.054456,	0.000297
0.675000,	0.054456,	0.000297
0.705000,	0.054456,	0.000297
0.735000,	0.054456,	0.000297
0.765000,	0.054456,	0.000297
0.795000,	0.054456,	0.000297
0.825000,	0.054456,	0.000297
0.855000,	0.054456,	0.000297
0.885000,	0.054456,	0.000297
0.915000,	0.054456,	0.000297
0.945000,	0.054456,	0.000297
0.975000,	0.054456,	0.000297
1.005000,	0.056819,	0.000296
1.035000,	0.062729,	0.000294
1.065000,	0.069821,	0.000292
1.095000,	0.076912,	0.000290
1.125000,	0.084004,	0.000288
1.155000,	0.091095,	0.000286
1.185000,	0.098187,	0.000283
1.215000,	0.105278,	0.000281
1.245000,	0.112370,	0.000279
1.275000,	0.119462,	0.000277
1.305000,	0.126553,	0.000274
1.335000,	0.133645,	0.000272
1.365000,	0.140736,	0.000270
1.395000,	0.147828,	0.000268
1.425000,	0.154919,	0.000265
1.455000,	0.162011,	0.000263
1.485000,	0.169103,	0.000261
1.515000,	0.176195,	0.000259
1.545000,	0.183286,	0.000257
1.575000,	0.190377,	0.000254
1.605000,	0.197469,	0.000252
1.635000,	0.204561,	0.000250
1.665000,	0.211652,	0.000248
1.695000,	0.218744,	0.000245
1.725000,	0.225836,	0.000243
1.755000,	0.232927,	0.000241
1.785000,	0.240018,	0.000239
1.815000,	0.247110,	0.000237
1.845000,	0.254202,	0.000234
1.875000,	0.261293,	0.000232
1.905000,	0.268385,	0.000230
1.935000,	0.275477,	0.000228
1.965000,	0.282568,	0.000225
1.995000,	0.288477,	0.000224
2.025000,	0.290841,	0.000223
2.055000,	0.290841,	0.000223
2.085000,	0.290841,	0.000223
2.115000,	0.290841,	0.000223
2.145000,	0.290841,	0.000223
2.175000,	0.290841,	0.000223
2.205000,	0.290841,	0.000223
2.235000,	0.290841,	0.000223
2.265000,	0.290841,	0.000223
2.295000,	0.290841,	0.000223
2.325000,	0.290841,	0.000223
2.355000,	0.290841,	0.000223
2.385000,	0.290841,	0.000223
2.415000,	0.290841,	0.000223
2.445000,	0.290841,	0.000223
2.475000,	0.290841,	0.000223
2.505000,	0.290841,	0.000223
2.535000,	0.290841,	0.000223
2.565000,	0.290841,	0.000223
2.595000,	0.290841,	0.000223
2.625000,	0.290841,	0.000223
2.655000,	0.290841,	0.000223
2.685000,	0.290841,	0.000223
2.715000,	0.290841,	0.000223
2.745000,	0.290841,	0.000223
2.775000,	0.290841,	0.000223
2.805000,	0.290841,	0.000223
2.835000,	0.290841,	0.000223
2.865000,	0.290841,	0.000223
2.895000,	0.290841,	0.000223
2.925000,	0.290841,	0.000223
2.955000,	0.290841,	0.000223
2.985000,	0.290841,	0.000223
0.015000,	0.064356,	0.000297
0.045000,	0.064356,	0.000297
0.075000,	0.064356,	0.000297
0.105000,	0.064356,	0.000297
0.135000,	0.064356,	0.000297
0.165000,	0.064356,	0.000297
0.195000,	0.064356,	0.000297
0.225000,	0.064356,	0.000297
0.255000,	0.064356,	0.000297
0.285000,	0.064356,	0.000297
0.315000,	0.064356,	0.000297
0.345000,	0.064356,	0.000297
0.375000,	0.064356,	0.000297
0.405000,	0.064356,	0.000297
0.435000,	0.064356,	0.000297
0.465000,	0.064356,	0.000297
0.495000,	0.064356,	0.000297
0.525000,	0.064356,	0.000297
0.555000,	0.064356,	0.000297
0.585000,	0.064356,	0.000297
0.615000,	0.064356,	0.000297
0.645000,	0.064356,	0.000297
0.675000,	0.064356,	0.000297
0.705000,	0.064356,	0.000297
0.735000,	0.064356,	0.000297
0.765000,	0.064356,	0.000297
0.795000,	0.064356,	0.000297
0.825000,	0.064356,	0.000297
0.855000,	0.064356,	0.000297
0.885000,	0.064356,	0.000297
0.915000,	0.064356,	0.000297
0.945000,	0.064356,	0.000297
0.975000,	0.064356,	0.000297
1.005000,	0.066696,	0.000296
1.035000,	0.072543,	0.000294
1.065000,	0.079561,	0.000292
1.095000,	0.086578,	0.000290
1.125000,	0.093595,	0.000288
1.155000,	0.100612,	0.000286
1.185000,	0.107630,	0.000283
1.215000,	0.114647,	0.000281
1.245000,	0.121665,	0.000279
1.275000,	0.128682,	0.000277
1.305000,	0.135699,	0.000274
1.335000,	0.142716,	0.000272
1.365000,	0.149734,	0.000270
1.395000,	0.156751,	0.000268
1.425000,	0.163768,	0.000265
1.455000,	0.170786,	0.000263
1.485000,	0.177803,	0.000261
1.515000,	0.184821,	0.000259
1.545000,	0.191838,	0.000257
1.575000,	0.198855,	0.000254
1.605000,	0.205872,	0.000252
1.635000,	0.212890,	0.000250
1.665000,	0.219907,	0.000248
1.695000,	0.226925,	0.000245
1.725000,	0.233942,	0.000243
1.755000,	0.240959,	0.000241
1.785000,	0.247976,	0.000239
1.815000,	0.254994,	0.000237
1.845000,	0.262011,	0.000234
1.875000,	0.269029,	0.000232
1.905000,	0.276046,	0.000230
1.935000,	0.283063,	0.000228
1.965000,	0.290081,	0.000225
1.995000,	0.295928,	0.000224
2.025000,	0.298267,	0.000223
2.055000,	0.298267,	0.000223
2.085000,	0.298267,	0.000223
2.115000,	0.298267,	0.000223
2.145000,	0.298267,	0.000223
2.175000,	0.298267,	0.000223
2.205000,	0.298267,	0.000223
2.235000,	0.298267,	0.000223
2.265000,	0.298267,	0.000223
2.295000,	0.298267,	0.000223
2.325000,	0.298267,	0.000223
2.355000,	0.298267,	0.000223
2.385000,	0.298267,	0.000223
2.415000,	0.298267,	0.000223
2.445000,	0.298267,	0.000223
2.475000,	0.298267,	0.000223
2.505000,	0.298267,	0.000223
2.535000,	0.298267,	0.000223
2.565000,	0.298267,	0.000223
2.595000,	0.298267,	0.000223
2.625000,	0.298267,	0.000223
2.655000,	0.298267,	0.000223
2.685000,	0.298267,	0.000223
2.715000,	0.298267,	0.000223
2.745000,	0.298267,	0.000223
2.775000,	0.298267,	0.000223
2.805000,	0.298267,	0.000223
2.835000,	0.298267,	0.000223
2.865000,	0.298267,	0.000223
2.895000,	0.298267,	0.000223
2.925000,	0.298267,	0.000223
2.955000,	0.298267,	0.000223
2.985000,	0.298267,	0.000223
0.015000,	0.074258,	0.000297
0.045000,	0.074258,	0.000297
0.075000,	0.074258,	0.000297
0.105000,	0.074258,	0.000297
0.135000,	0.074258,	0.000297
0.165000,	0.074258,	0.000297
0.195000,	0.074258,	0.000297
0.225000,	0.074258,	0.000297
0.255000,	0.074258,	0.000297
0.285000,	0.074258,	0.000297
0.315000,	0.074258,	0.000297
0.345000,	0.074258,	0.000297
0.375000,	0.074258,	0.000297
0.405000,	0.074258,	0.000297
0.435000,	0.074258,	0.000297
0.465000,	0.074258,	0.000297
0.495000,	0.074258,	0.000297
0.525000,	0.074258,	0.000297
0.555000,	0.074258,	0.000297
0.585000,	0.074258,	0.000297
0.615000,	0.074258,	0.000297
0.645000,	0.074258,	0.000297
0.675000,	0.074258,	0.000297
0.705000,	0.074258,	0.000297
0.735000,	0.074258,	0.000297
0.765000,	0.074258,	0.000297
0.795000,	0.074258,	0.000297
0.825000,	0.074258,	0.000297
0.855000,	0.074258,	0.000297
0.885000,	0.074258,	0.000297
0.915000,	0.074258,	0.000297
0.945000,	0.074258,	0.000297
0.975000,	0.074258,	0.000297
1.005000,	0.076572,	0.000296
1.035000,	0.082358,	0.000294
1.065000,	0.089301,	0.000292
1.095000,	0.096244,	0.000290
1.125000,	0.103187,	0.000288
1.155000,	0.110130,	0.000286
1.185000,	0.117073,	0.000283
1.215000,	0.124016,	0.000281
1.245000,	0.130959,	0.000279
1.275000,	0.137902,	0.000277
1.305000,	0.144845,	0.000274
1.335000,	0.151788,	0.000272
1.365000,	0.158732,	0.000270
1.395000,	0.165675,	0.000268
1.425000,	0.172617,	0.000265
1.455000,	0.179560,	0.000263
1.485000,	0.186504,	0.000261
1.515000,	0.193447,	0.000259
1.545000,	0.200390,	0.000257
1.575000,	0.207333,	0.000254
1.605000,	0.214276,	0.000252
1.635000,	0.221219,	0.000250
1.665000,	0.228162,	0.000248
1.695000,	0.235106,	0.000245
1.725000,	0.242048,	0.000243
1.755000,	0.248991,	0.000241
1.785000,	0.255934,	0.000239
1.815000,	0.262877,	0.000236
1.845000,	0.269821,	0.000234
1.875000,	0.276763,	0.000232
1.905000,	0.283707,	0.000230
1.935000,	0.290650,	0.000228
1.965000,	0.297593,	0.000225
1.995000,	0.303379,	0.000224
2.025000,	0.305693,	0.000223
2.055000,	0.305693,	0.000223
2.085000,	0.305693,	0.000223
2.115000,	0.305693,	0.000223
2.145000,	0.305693,	0.000223
2.175000,	0.305693,	0.000223
2.205000,	0.305693,	0.000223
2.235000,	0.305693,	0.000223
2.265000,	0.305693,	0.000223
2.295000,	0.305693,	0.000223
2.325000,	0.305693,	0.000223
2.355000,	0.305693,	0.000223
2.385000,	0.305693,	0.000223
2.415000,	0.305693,	0.000223
2.445000,	0.305693,	0.000223
2.475000,	0.305693,	0.000223
2.505000,	0.305693,	0.000223
2.535000,	0.305693,	0.000223
2.565000,	0.305693,	0.000223
2.595000,	0.305693,	0.000223
2.625000,	0.305693,	0.000223
2.655000,	0.305693,	0.000223
2.685000,	0.305693,	0.000223
2.715000,	0.305693,	0.000223
2.745000,	0.305693,	0.000223
2.775000,	0.305693,	0.000223
2.805000,	0.305693,	0.000223
2.835000,	0.305693,	0.000223
2.865000,	0.305693,	0.000223
2.895000,	0.305693,	0.000223
2.925000,	0.305693,	0.000223
2.955000,	0.305693,	0.000223
2.985000,	0.305693,	0.000223
0.015000,	0.084158,	0.000297
0.045000,	0.084158,	0.000297
0.075000,	0.084158,	0.000297
0.105000,	0.084158,	0.000297
0.135000,	0.084158,	0.000297
0.165000,	0.084158,	0.000297
0.195000,	0.084158,	0.000297
0.225000,	0.084158,	0.000297
0.255000,	0.084158,	0.000297
0.285000,	0.084158,	0.000297
0.315000,	0.084158,	0.000297
0.345000,	0.084158,	0.000297
0.375000,	0.084158,	0.000297
0.405000,	0.084158,	0.000297
0.435000,	0.084158,	0.000297
0.465000,	0.084158,	0.000297
0.495000,	0.084158,	0.000297
0.525000,	0.084158,	0.000297
0.555000,	0.084158,	0.000297
0.585000,	0.084158,	0.000297
0.615000,	0.084158,	0.000297
0.645000,	0.084158,	0.000297
0.675000,	0.084158,	0.000297
0.705000,	0.084158,	0.000297
0.735000,	0.084158,	0.000297
0.765000,	0.084158,	0.000297
0.795000,	0.084158,	0.000297
0.825000,	0.084158,	0.000297
0.855000,	0.084158,	0.000297
0.885000,	0.084158,	0.000297
0.915000,	0.084158,	0.000297
0.945000,	0.084158,	0.000297
0.975000,	0.084158,	0.000297
1.005000,	0.086448,	0.000296
1.035000,	0.092172,	0.000294
1.065000,	0.099041,	0.000292
1.095000,	0.105910,	0.000290
1.125000,	0.112778,	0.000288
1.155000,	0.119647,	0.000286
1.185000,	0.126516,	0.000283
1.215000,	0.133385,	0.000281
1.245000,	0.140254,	0.000279
1.275000,	0.147123,	0.000277
1.305000,	0.153991,	0.000274
1.335000,	0.160860,	0.000272
1.365000,	0.167729,	0.000270
1.395000,	0.174598,	0.000268
1.425000,	0.181466,	0.000265
1.455000,	0.188336,	0.000263
1.485000,	0.195204,	0.000261
1.515000,	0.202073,	0.000259
1.545000,	0.208942,	0.000257
1.575000,	0.215811,	0.000254
1.605000,	0.222680,	0.000252
1.635000,	0.229548,	0.000250
1.665000,	0.236417,	0.000248
1.695000,	0.243286,	0.000245
1.725000,	0.250155,	0.000243
1.755000,	0.257023,	0.000241
1.785000,	0.263892,	0.000239
1.815000,	0.270761,	0.000237
1.845000,	0.277630,	0.000234
1.875000,	0.284498,	0.000232
1.905000,	0.291368,	0.000230
1.935000,	0.298237,	0.000228
1.965000,	0.305105,	0.000225
1.995000,	0.310829,	0.000224
2.025000,	0.313119,	0.000223
2.055000,	0.313119,	0.000223
2.085000,	0.313119,	0.000223
2.115000,	0.313119,	0.000223
2.145000,	0.313119,	0.000223
2.175000,	0.313119,	0.000223
2.205000,	0.313119,	0.000223
2.235000,	0.313119,	0.000223
2.265000,	0.313119,	0.000223
2.295000,	0.313119,	0.000223
2.325000,	0.313119,	0.000223
2.355000,	0.313119,	0.000223
2.385000,	0.313119,	0.000223
2.415000,	0.313119,	0.000223
2.445000,	0.313119,	0.000223
2.475000,	0.313119,	0.000223
2.505000,	0.313119,	0.000223
2.535000,	0.313119,	0.000223
2.565000,	0.313119,	0.000223
2.595000,	0.313119,	0.000223
2.625000,	0.313119,	0.000223
2.655000,	0.313119,	0.000223
2.685000,	0.313119,	0.000223
2.715000,	0.313119,	0.000223
2.745000,	0.313119,	0.000223
2.775000,	0.313119,	0.000223
2.805000,	0.313119,	0.000223
2.835000,	0.313119,	0.000223
2.865000,	0.313119,	0.000223
2.895000,	0.313119,	0.000223
2.925000,	0.313119,	0.000223
2.955000,	0.313119,	0.000223
2.985000,	0.313119,	0.000223
0.015000,	0.094059,	0.000297
0.045000,	0.094059,	0.000297
0.075000,	0.094059,	0.000297
0.105000,	0.094059,	0.000297
0.135000,	0.094059,	0.000297
0.165000,	0.094059,	0.000297
0.195000,	0.094059,	0.000297
0.225000,	0.094059,	0.000297
0.255000,	0.094059,	0.000297
0.285000,	0.094059,	0.000297
0.315000,	0.094059,	0.000297
0.345000,	0.094059,	0.000297
0.375000,	0.094059,	0.000297
0.405000,	0.094059,	0.000297
0.435000,	0.094059,	0.000297
0.465000,	0.094059,	0.000297
0.495000,	0.094059,	0.000297
0.525000,	0.094059,	0.000297
0.555000,	0.094059,	0.000297
0.585000,	0.094059,	0.000297
0.615000,	0.094059,	0.000297
0.645000,	0.094059,	0.000297
0.675000,	0.094059,	0.000297
0.705000,	0.094059,	0.000297
0.735000,	0.094059,	0.000297
0.765000,	0.094059,	0.000297
0.795000,	0.094059,	0.000297
0.825000,	0.094059,	0.000297
0.855000,	0.094059,	0.000297
0.885000,	0.094059,	0.000297
0.915000,	0.094059,	0.000297
0.945000,	0.094059,	0.000297
0.975000,	0.094059,	0.000297
1.005000,	0.096324,	0.000296
1.035000,	0.101986,	0.000294
1.065000,	0.108781,	0.000292
1.095000,	0.115575,	0.000290
1.125000,	0.122370,	0.000288
1.155000,	0.129165,	0.000286
1.185000,	0.135959,	0.000283
1.215000,	0.142753,	0.000281
1.245000,	0.149548,	0.000279
1.275000,	0.156343,	0.000277
1.305000,	0.163137,	0.000274
1.335000,	0.169932,	0.000272
1.365000,	0.176727,	0.000270
1.395000,	0.183521,	0.000268
1.425000,	0.190315,	0.000265
1.455000,	0.197110,	0.000263
1.485000,	0.203905,	0.000261
1.515000,	0.210699,	0.000259
1.545000,	0.217494,	0.000257
1.575000,	0.224289,	0.000254
1.605000,	0.231083,	0.000252
1.635000,	0.237877,	0.000250
1.665000,	0.244672,	0.000248
1.695000,	0.251467,	0.000245
1.725000,	0.258261,	0.000243
1.755000,	0.265055,	0.000241
1.785000,	0.271850,	0.000239
1.815000,	0.278645,	0.000237
1.845000,	0.285439,	0.000234
1.875000,	0.292234,	0.000232
1.905000,	0.299028,	0.000230
1.935000,	0.305823,	0.000228
1.965000,	0.312617,	0.000225
1.995000,	0.318279,	0.000224
2.025000,	0.320545,	0.000223
2.055000,	0.320545,	0.000223
2.085000,	0.320545,	0.000223
2.115000,	0.320545,	0.000223
2.145000,	0.320545,	0.000223
2.175000,	0.320545,	0.000223
2.205000,	0.320545,	0.000223
2.235000,	0.320545,	0.000223
2.265000,	0.320545,	0.000223
2.295000,	0.320545,	0.000223
2.325000,	0.320545,	0.000223
2.355000,	0.320545,	0.000223
2.385000,	0.320545,	0.000223
2.415000,	0.320545,	0.000223
2.445000,	0.320545,	0.000223
2.475000,	0.320545,	0.000223
2.505000,	0.320545,	0.000223
2.535000,	0.320545,	0.000223
2.565000,	0.320545,	0.000223
2.595000,	0.320545,	0.000223
2.625000,	0.320545,	0.000223
2.655000,	0.320545,	0.000223
2.685000,	0.320545,	0.000223
2.715000,	0.320545,	0.000223
2.745000,	0.320545,	0.000223
2.775000,	0.320545,	0.000223
2.805000,	0.320545,	0.000223
2.835000,	0.320545,	0.000223
2.865000,	0.320545,	0.000223
2.895000,	0.320545,	0.000223
2.925000,	0.320545,	0.000223
2.955000,	0.320545,	0.000223
2.985000,	0.320545,	0.000223
0.015000,	0.103960,	0.000297
0.045000,	0.103960,	0.000297
0.075000,	0.103960,	0.000297
0.105000,	0.103960,	0.000297
0.135000,	0.103960,	0.000297
0.165000,	0.103960,	0.000297
0.195000,	0.103960,	0.000297
0.225000,	0.103960,	0.000297
0.255000,	0.103960,	0.000297
0.285000,	0.103960,	0.000297
0.315000,	0.103960,	0.000297
0.345000,	0.103960,	0.000297
0.375000,	0.103960,	0.000297
0.405000,	0.103960,	0.000297
0.435000,	0.103960,	0.000297
0.465000,	0.103960,	0.000297
0.495000,	0.103960,	0.000297
0.525000,	0.103960,	0.000297
0.555000,	0.103960,	0.000297
0.585000,	0.103960,	0.000297
0.615000,	0.103960,	0.000297
0.645000,	0.103960,	0.000297
0.675000,	0.103960,	0.000297
0.705000,	0.103960,	0.000297
0.735000,	0.103960,	0.000297
0.765000,	0.103960,	0.000297
0.795000,	0.103960,	0.000297
0.825000,	0.103960,	0.000297
0.855000,	0.103960,	0.000297
0.885000,	0.103960,	0.000297
0.915000,	0.103960,	0.000297