TITLE = "MeshVolumeStats"
VARIABLES = "X", "Y", "VOL"
ZONE I=100, J=100, DATAPACKING=POINT
0.030000,	0.007425,	0.000891
0.090000,	0.007425,	0.000891
0.150000,	0.007425,	0.000891
0.210000,	0.007425,	0.000891
0.270000,	0.007425,	0.000891
0.330000,	0.007425,	0.000891
0.390000,	0.007425,	0.000891
0.450000,	0.007425,	0.000891
0.510000,	0.007425,	0.000891
0.570000,	0.007425,	0.000891
0.630000,	0.007425,	0.000891
0.690000,	0.007425,	0.000891
0.750000,	0.007425,	0.000891
0.810000,	0.007425,	0.000891
0.870000,	0.007425,	0.000891
0.930000,	0.007425,	0.000891
0.990000,	0.009913,	0.000890
1.050000,	0.019864,	0.000884
1.110000,	0.034790,	0.000875
1.170000,	0.049715,	0.000866
1.230000,	0.064641,	0.000857
1.290000,	0.079567,	0.000848
1.350000,	0.094493,	0.000839
1.410000,	0.109418,	0.000830
1.470000,	0.124344,	0.000821
1.530000,	0.139270,	0.000812
1.590000,	0.154195,	0.000803
1.650000,	0.169121,	0.000795
1.710000,	0.184047,	0.000786
1.770000,	0.198973,	0.000777
1.830000,	0.213898,	0.000768
1.890000,	0.228824,	0.000759
1.950000,	0.243750,	0.000750
2.010000,	0.253701,	0.000744
2.070000,	0.256188,	0.000743
2.130000,	0.256188,	0.000743
2.190000,	0.256188,	0.000743
2.250000,	0.256188,	0.000743
2.310000,	0.256188,	0.000743
2.370000,	0.256188,	0.000743
2.430000,	0.256188,	0.000743
2.490000,	0.256188,	0.000743
2.550000,	0.256188,	0.000743
2.610000,	0.256188,	0.000743
2.670000,	0.256188,	0.000743
2.730000,	0.256188,	0.000743
2.790000,	0.256188,	0.000743
2.850000,	0.256188,	0.000743
2.910000,	0.256188,	0.000743
2.970000,	0.256188,	0.000743
3.030000,	0.256188,	0.000743
3.090000,	0.256188,	0.000743
3.150000,	0.256188,	0.000743
3.210000,	0.256188,	0.000743
3.270000,	0.256188,	0.000743
3.330000,	0.256188,	0.000743
3.390000,	0.256188,	0.000743
3.450000,	0.256188,	0.000743
3.510000,	0.256188,	0.000743
3.570000,	0.256188,	0.000743
3.630000,	0.256188,	0.000743
3.690000,	0.256188,	0.000743
3.750000,	0.256188,	0.000743
3.810000,	0.256188,	0.000743
3.870000,	0.256188,	0.000743
3.930000,	0.256188,	0.000743
3.990000,	0.256188,	0.000743
4.050000,	0.256188,	0.000743
4.110000,	0.256188,	0.000743
4.170000,	0.256188,	0.000743
4.230000,	0.256188,	0.000743
4.290000,	0.256188,	0.000743
4.350000,	0.256188,	0.000743
4.410000,	0.256188,	0.000743
4.470000,	0.256188,	0.000743
4.530000,	0.256188,	0.000743
4.590000,	0.256188,	0.000743
4.650000,	0.256188,	0.000743
4.710000,	0.256188,	0.000743
4.770000,	0.256188,	0.000743
4.830000,	0.256188,	0.000743
4.890000,	0.256188,	0.000743
4.950000,	0.256188,	0.000743
5.010000,	0.256188,	0.000743
5.070000,	0.256188,	0.000743
5.130000,	0.256188,	0.000743
5.190000,	0.256188,	0.000743
5.250000,	0.256188,	0.000743
5.310000,	0.256188,	0.000743
5.370000,	0.256188,	0.000743
5.430000,	0.256188,	0.000743
5.490000,	0.256188,	0.000743
5.550000,	0.256188,	0.000743
5.610000,	0.256188,	0.000743
5.670000,	0.256188,	0.000743
5.730000,	0.256188,	0.000743
5.790000,	0.256188,	0.000743
5.850000,	0.256188,	0.000743
5.910000,	0.256188,	0.000743
5.970000,	0.256188,	0.000743
0.030000,	0.022277,	0.000891
0.090000,	0.022277,	0.000891
0.150000,	0.022277,	0.000891
0.210000,	0.022277,	0.000891
0.270000,	0.022277,	0.000891
0.330000,	0.022277,	0.000891
0.390000,	0.022277,	0.000891
0.450000,	0.022277,	0.000891
0.510000,	0.022277,	0.000891
0.570000,	0.022277,	0.000891
0.630000,	0.022277,	0.000891
0.690000,	0.022277,	0.000891
0.750000,	0.022277,	0.000891
0.810000,	0.022277,	0.000891
0.870000,	0.022277,	0.000891
0.930000,	0.022277,	0.000891
0.990000,	0.024740,	0.000890
1.050000,	0.034591,	0.000884
1.110000,	0.049369,	0.000875
1.170000,	0.064146,	0.000866
1.230000,	0.078923,	0.000857
1.290000,	0.093701,	0.000848
1.350000,	0.108478,	0.000839
1.410000,	0.123255,	0.000830
1.470000,	0.138032,	0.000821
1.530000,	0.152809,	0.000812
1.590000,	0.167587,	0.000803
1.650000,	0.182364,	0.000795
1.710000,	0.197141,	0.000786
1.770000,	0.211919,	0.000777
1.830000,	0.226696,	0.000768
1.890000,	0.241473,	0.000759
1.950000,	0.256250,	0.000750
2.010000,	0.266101,	0.000744
2.070000,	0.268564,	0.000743
2.130000,	0.268564,	0.000743
2.190000,	0.268564,	0.000743
2.250000,	0.268564,	0.000743
2.310000,	0.268564,	0.000743
2.370000,	0.268564,	0.000743
2.430000,	0.268564,	0.000743
2.490000,	0.268564,	0.000743
2.550000,	0.268564,	0.000743
2.610000,	0.268564,	0.000743
2.670000,	0.268564,	0.000743
2.730000,	0.268564,	0.000743
2.790000,	0.268564,	0.000743
2.850000,	0.268564,	0.000743
2.910000,	0.268564,	0.000743
2.970000,	0.268564,	0.000743
3.030000,	0.268564,	0.000743
3.090000,	0.268564,	0.000743
3.150000,	0.268564,	0.000743
3.210000,	0.268564,	0.000743
3.270000,	0.268564,	0.000743
3.330000,	0.268564,	0.000743
3.390000,	0.268564,	0.000743
3.450000,	0.268564,	0.000743
3.510000,	0.268564,	0.000743
3.570000,	0.268564,	0.000743
3.630000,	0.268564,	0.000743
3.690000,	0.268564,	0.000743
3.750000,	0.268564,	0.000743
3.810000,	0.268564,	0.000743
3.870000,	0.268564,	0.000743
3.930000,	0.268564,	0.000743
3.990000,	0.268564,	0.000743
4.050000,	0.268564,	0.000743
4.110000,	0.268564,	0.000743
4.170000,	0.268564,	0.000743
4.230000,	0.268564,	0.000743
4.290000,	0.268564,	0.000743
4.350000,	0.268564,	0.000743
4.410000,	0.268564,	0.000743
4.470000,	0.268564,	0.000743
4.530000,	0.268564,	0.000743
4.590000,	0.268564,	0.000743
4.650000,	0.268564,	0.000743
4.710000,	0.268564,	0.000743
4.770000,	0.268564,	0.000743
4.830000,	0.268564,	0.000743
4.890000,	0.268564,	0.000743
4.950000,	0.268564,	0.000743
5.010000,	0.268564,	0.000743
5.070000,	0.268564,	0.000743
5.130000,	0.268564,	0.000743
5.190000,	0.268564,	0.000743
5.250000,	0.268564,	0.000743
5.310000,	0.268564,	0.000743
5.370000,	0.268564,	0.000743
5.430000,	0.268564,	0.000743
5.490000,	0.268564,	0.000743
5.550000,	0.268564,	0.000743
5.610000,	0.268564,	0.000743
5.670000,	0.268564,	0.000743
5.730000,	0.268564,	0.000743
5.790000,	0.268564,	0.000743
5.850000,	0.268564,	0.000743
5.910000,	0.268564,	0.000743
5.970000,	0.268564,	0.000743
0.030000,	0.037129,	0.000891
0.090000,	0.037129,	0.000891
0.150000,	0.037129,	0.000891
0.210000,	0.037129,	0.000891
0.270000,	0.037129,	0.000891
0.330000,	0.037129,	0.000891
0.390000,	0.037129,	0.000891
0.450000,	0.037129,	0.000891
0.510000,	0.037129,	0.000891
0.570000,	0.037129,	0.000891
0.630000,	0.037129,	0.000891
0.690000,	0.037129,	0.000891
0.750000,	0.037129,	0.000891
0.810000,	0.037129,	0.000891
0.870000,	0.037129,	0.000891
0.930000,	0.037129,	0.000891
0.990000,	0.039567,	0.000890
1.050000,	0.049319,	0.000884
1.110000,	0.063948,	0.000875
1.170000,	0.078577,	0.000866
1.230000,	0.093205,	0.000857
1.290000,	0.107834,	0.000848
1.350000,	0.122463,	0.000839
1.410000,	0.137092,	0.000830
1.470000,	0.151721,	0.000821
1.530000,	0.166349,	0.000812
1.590000,	0.180978,	0.000803
1.650000,	0.195607,	0.000795
1.710000,	0.210235,	0.000786
1.770000,	0.224864,	0.000777
1.830000,	0.239493,	0.000768
1.890000,	0.254122,	0.000759
1.950000,	0.268750,	0.000750
2.010000,	0.278502,	0.000744
2.070000,	0.280941,	0.000743
2.130000,	0.280941,	0.000743
2.190000,	0.280941,	0.000743
2.250000,	0.280941,	0.000743
2.310000,	0.280941,	0.000743
2.370000,	0.280941,	0.000743
2.430000,	0.280941,	0.000743
2.490000,	0.280941,	0.000743
2.550000,	0.280941,	0.000743
2.610000,	0.280941,	0.000743
2.670000,	0.280941,	0.000743
2.730000,	0.280941,	0.000743
2.790000,	0.280941,	0.000743
2.850000,	0.280941,	0.000743
2.910000,	0.280941,	0.000743
2.970000,	0.280941,	0.000743
3.030000,	0.280941,	0.000743
3.090000,	0.280941,	0.000743
3.150000,	0.280941,	0.000743
3.210000,	0.280941,	0.000743
3.270000,	0.280941,	0.000743
3.330000,	0.280941,	0.000743
3.390000,	0.280941,	0.000743
3.450000,	0.280941,	0.000743
3.510000,	0.280941,	0.000743
3.570000,	0.280941,	0.000743
3.630000,	0.280941,	0.000743
3.690000,	0.280941,	0.000743
3.750000,	0.280941,	0.000743
3.810000,	0.280941,	0.000743
3.870000,	0.280941,	0.000743
3.930000,	0.280941,	0.000743
3.990000,	0.280941,	0.000743
4.050000,	0.280941,	0.000743
4.110000,	0.280941,	0.000743
4.170000,	0.280941,	0.000743
4.230000,	0.280941,	0.000743
4.290000,	0.280941,	0.000743
4.350000,	0.280941,	0.000743
4.410000,	0.280941,	0.000743
4.470000,	0.280941,	0.000743
4.530000,	0.280941,	0.000743
4.590000,	0.280941,	0.000743
4.650000,	0.280941,	0.000743
4.710000,	0.280941,	0.000743
4.770000,	0.280941,	0.000743
4.830000,	0.280941,	0.000743
4.890000,	0.280941,	0.000743
4.950000,	0.280941,	0.000743
5.010000,	0.280941,	0.000743
5.070000,	0.280941,	0.000743
5.130000,	0.280941,	0.000743
5.190000,	0.280941,	0.000743
5.250000,	0.280941,	0.000743
5.310000,	0.280941,	0.000743
5.370000,	0.280941,	0.000743
5.430000,	0.280941,	0.000743
5.490000,	0.280941,	0.000743
5.550000,	0.280941,	0.000743
5.610000,	0.280941,	0.000743
5.670000,	0.280941,	0.000743
5.730000,	0.280941,	0.000743
5.790000,	0.280941,	0.000743
5.850000,	0.280941,	0.000743
5.910000,	0.280941,	0.000743
5.970000,	0.280941,	0.000743
0.030000,	0.051980,	0.000891
0.090000,	0.051980,	0.000891
0.150000,	0.051980,	0.000891
0.210000,	0.051980,	0.000891
0.270000,	0.051980,	0.000891
0.330000,	0.051980,	0.000891
0.390000,	0.051980,	0.000891
0.450000,	0.051980,	0.000891
0.510000,	0.051980,	0.000891
0.570000,	0.051980,	0.000891
0.630000,	0.051980,	0.000891
0.690000,	0.051980,	0.000891
0.750000,	0.051980,	0.000891
0.810000,	0.051980,	0.000891
0.870000,	0.051980,	0.000891
0.930000,	0.051980,	0.000891
0.990000,	0.054393,	0.000890
1.050000,	0.064047,	0.000884
1.110000,	0.078527,	0.000875
1.170000,	0.093007,	0.000866
1.230000,	0.107488,	0.000857
1.290000,	0.121968,	0.000848
1.350000,	0.136448,	0.000839
1.410000,	0.150928,	0.000830
1.470000,	0.165409,	0.000821
1.530000,	0.179889,	0.000812
1.590000,	0.194369,	0.000803
1.650000,	0.208849,	0.000795
1.710000,	0.223329,	0.000786
1.770000,	0.237809,	0.000777
1.830000,	0.252290,	0.000768
1.890000,	0.266770,	0.000759
1.950000,	0.281250,	0.000750
2.010000,	0.290903,	0.000744
2.070000,	0.293317,	0.000743
2.130000,	0.293317,	0.000743
2.190000,	0.293317,	0.000743
2.250000,	0.293317,	0.000743
2.310000,	0.293317,	0.000743
2.370000,	0.293317,	0.000743
2.430000,	0.293317,	0.000743
2.490000,	0.293317,	0.000743
2.550000,	0.293317,	0.000743
2.610000,	0.293317,	0.000743
2.670000,	0.293317,	0.000743
2.730000,	0.293317,	0.000743
2.790000,	0.293317,	0.000743
2.850000,	0.293317,	0.000743
2.910000,	0.293317,	0.000743
2.970000,	0.293317,	0.000743
3.030000,	0.293317,	0.000743
3.090000,	0.293317,	0.000743
3.150000,	0.293317,	0.000743
3.210000,	0.293317,	0.000743
3.270000,	0.293317,	0.000743
3.330000,	0.293317,	0.000743
3.390000,	0.293317,	0.000743
3.450000,	0.293317,	0.000743
3.510000,	0.293317,	0.000743
3.570000,	0.293317,	0.000743
3.630000,	0.293317,	0.000743
3.690000,	0.293317,	0.000743
3.750000,	0.293317,	0.000743
3.810000,	0.293317,	0.000743
3.870000,	0.293317,	0.000743
3.930000,	0.293317,	0.000743
3.990000,	0.293317,	0.000743
4.050000,	0.293317,	0.000743
4.110000,	0.293317,	0.000743
4.170000,	0.293317,	0.000743
4.230000,	0.293317,	0.000743
4.290000,	0.293317,	0.000743
4.350000,	0.293317,	0.000743
4.410000,	0.293317,	0.000743
4.470000,	0.293317,	0.000743
4.530000,	0.293317,	0.000743
4.590000,	0.293317,	0.000743
4.650000,	0.293317,	0.000743
4.710000,	0.293317,	0.000743
4.770000,	0.293317,	0.000743
4.830000,	0.293317,	0.000743
4.890000,	0.293317,	0.000743
4.950000,	0.293317,	0.000743
5.010000,	0.293317,	0.000743
5.070000,	0.293317,	0.000743
5.130000,	0.293317,	0.000743
5.190000,	0.293317,	0.000743
5.250000,	0.293317,	0.000743
5.310000,	0.293317,	0.000743
5.370000,	0.293317,	0.000743
5.430000,	0.293317,	0.000743
5.490000,	0.293317,	0.000743
5.550000,	0.293317,	0.000743
5.610000,	0.293317,	0.000743
5.670000,	0.293317,	0.000743
5.730000,	0.293317,	0.000743
5.790000,	0.293317,	0.000743
5.850000,	0.293317,	0.000743
5.910000,	0.293317,	0.000743
5.970000,	0.293317,	0.000743
0.030000,	0.066832,	0.000891
0.090000,	0.066832,	0.000891
0.150000,	0.066832,	0.000891
0.210000,	0.066832,	0.000891
0.270000,	0.066832,	0.000891
0.330000,	0.066832,	0.000891
0.390000,	0.066832,	0.000891
0.450000,	0.066832,	0.000891
0.510000,	0.066832,	0.000891
0.570000,	0.066832,	0.000891
0.630000,	0.066832,	0.000891
0.690000,	0.066832,	0.000891
0.750000,	0.066832,	0.000891
0.810000,	0.066832,	0.000891
0.870000,	0.066832,	0.000891
0.930000,	0.066832,	0.000891
0.990000,	0.069220,	0.000890
1.050000,	0.078775,	0.000884
1.110000,	0.093107,	0.000875
1.170000,	0.107438,	0.000866
1.230000,	0.121770,	0.000857
1.290000,	0.136102,	0.000848
1.350000,	0.150433,	0.000839
1.410000,	0.164765,	0.000830
1.470000,	0.179096,	0.000821
1.530000,	0.193428,	0.000812
1.590000,	0.207760,	0.000803
1.650000,	0.222092,	0.000795
1.710000,	0.236423,	0.000786
1.770000,	0.250755,	0.000777
1.830000,	0.265087,	0.000768
1.890000,	0.279418,	0.000759
1.950000,	0.293750,	0.000750
2.010000,	0.303304,	0.000744
2.070000,	0.305693,	0.000743
2.130000,	0.305693,	0.000743
2.190000,	0.305693,	0.000743
2.250000,	0.305693,	0.000743
2.310000,	0.305693,	0.000743
2.370000,	0.305693,	0.000743
2.430000,	0.305693,	0.000743
2.490000,	0.305693,	0.000743
2.550000,	0.305693,	0.000743
2.610000,	0.305693,	0.000743
2.670000,	0.305693,	0.000743
2.730000,	0.305693,	0.000743
2.790000,	0.305693,	0.000743
2.850000,	0.305693,	0.000743
2.910000,	0.305693,	0.000743
2.970000,	0.305693,	0.000743
3.030000,	0.305693,	0.000743
3.090000,	0.305693,	0.000743
3.150000,	0.305693,	0.000743
3.210000,	0.305693,	0.000743
3.270000,	0.305693,	0.000743
3.330000,	0.305693,	0.000743
3.390000,	0.305693,	0.000743
3.450000,	0.305693,	0.000743
3.510000,	0.305693,	0.000743
3.570000,	0.305693,	0.000743
3.630000,	0.305693,	0.000743
3.690000,	0.305693,	0.000743
3.750000,	0.305693,	0.000743
3.810000,	0.305693,	0.000743
3.870000,	0.305693,	0.000743
3.930000,	0.305693,	0.000743
3.990000,	0.305693,	0.000743
4.050000,	0.305693,	0.000743
4.110000,	0.305693,	0.000743
4.170000,	0.305693,	0.000743
4.230000,	0.305693,	0.000743
4.290000,	0.305693,	0.000743
4.350000,	0.305693,	0.000743
4.410000,	0.305693,	0.000743
4.470000,	0.305693,	0.000743
4.530000,	0.305693,	0.000743
4.590000,	0.305693,	0.000743
4.650000,	0.305693,	0.000743
4.710000,	0.305693,	0.000743
4.770000,	0.305693,	0.000743
4.830000,	0.305693,	0.000743
4.890000,	0.305693,	0.000743
4.950000,	0.305693,	0.000743
5.010000,	0.305693,	0.000743
5.070000,	0.305693,	0.000743
5.130000,	0.305693,	0.000743
5.190000,	0.305693,	0.000743
5.250000,	0.305693,	0.000743
5.310000,	0.305693,	0.000743
5.370000,	0.305693,	0.000743
5.430000,	0.305693,	0.000743
5.490000,	0.305693,	0.000743
5.550000,	0.305693,	0.000743
5.610000,	0.305693,	0.000743
5.670000,	0.305693,	0.000743
5.730000,	0.305693,	0.000743
5.790000,	0.305693,	0.000743
5.850000,	0.305693,	0.000743
5.910000,	0.305693,	0.000743
5.970000,	0.305693,	0.000743
0.030000,	0.081683,	0.000891
0.090000,	0.081683,	0.000891
0.150000,	0.081683,	0.000891
0.210000,	0.081683,	0.000891
0.270000,	0.081683,	0.000891
0.330000,	0.081683,	0.000891
0.390000,	0.081683,	0.000891
0.450000,	0.081683,	0.000891
0.510000,	0.081683,	0.000891
0.570000,	0.081683,	0.000891
0.630000,	0.081683,	0.000891
0.690000,	0.081683,	0.000891
0.750000,	0.081683,	0.000891
0.810000,	0.081683,	0.000891
0.870000,	0.081683,	0.000891
0.930000,	0.081683,	0.000891
0.990000,	0.084047,	0.000890
1.050000,	0.093503,	0.000884
1.110000,	0.107686,	0.000875
1.170000,	0.121869,	0.000866
1.230000,	0.136052,	0.000857
1.290000,	0.150235,	0.000848
1.350000,	0.164418,	0.000839
1.410000,	0.178601,	0.000830
1.470000,	0.192785,	0.000821
1.530000,	0.206968,	0.000812
1.590000,	0.221151,	0.000803
1.650000,	0.235334,	0.000795
1.710000,	0.249518,	0.000786
1.770000,	0.263701,	0.000777
1.830000,	0.277884,	0.000768
1.890000,	0.292067,	0.000759
1.950000,	0.306250,	0.000750
2.010000,	0.315705,	0.000744
2.070000,	0.318069,	0.000743
2.130000,	0.318069,	0.000743
2.190000,	0.318069,	0.000743
2.250000,	0.318069,	0.000743
2.310000,	0.318069,	0.000743
2.370000,	0.318069,	0.000743
2.430000,	0.318069,	0.000743
2.490000,	0.318069,	0.000743
2.550000,	0.318069,	0.000743
2.610000,	0.318069,	0.000743
2.670000,	0.318069,	0.000743
2.730000,	0.318069,	0.000743
2.790000,	0.318069,	0.000743
2.850000,	0.318069,	0.000743
2.910000,	0.318069,	0.000743
2.970000,	0.318069,	0.000743
3.030000,	0.318069,	0.000743
3.090000,	0.318069,	0.000743
3.150000,	0.318069,	0.000743
3.210000,	0.318069,	0.000743
3.270000,	0.318069,	0.000743
3.330000,	0.318069,	0.000743
3.390000,	0.318069,	0.000743
3.450000,	0.318069,	0.000743
3.510000,	0.318069,	0.000743
3.570000,	0.318069,	0.000743
3.630000,	0.318069,	0.000743
3.690000,	0.318069,	0.000743
3.750000,	0.318069,	0.000743
3.810000,	0.318069,	0.000743
3.870000,	0.318069,	0.000743
3.930000,	0.318069,	0.000743
3.990000,	0.318069,	0.000743
4.050000,	0.318069,	0.000743
4.110000,	0.318069,	0.000743
4.170000,	0.318069,	0.000743
4.230000,	0.318069,	0.000743
4.290000,	0.318069,	0.000743
4.350000,	0.318069,	0.000743
4.410000,	0.318069,	0.000743
4.470000,	0.318069,	0.000743
4.530000,	0.318069,	0.000743
4.590000,	0.318069,	0.000743
4.650000,	0.318069,	0.000743
4.710000,	0.318069,	0.000743
4.770000,	0.318069,	0.000743
4.830000,	0.318069,	0.000743
4.890000,	0.318069,	0.000743
4.950000,	0.318069,	0.000743
5.010000,	0.318069,	0.000743
5.070000,	0.318069,	0.000743
5.130000,	0.318069,	0.000743
5.190000,	0.318069,	0.000743
5.250000,	0.318069,	0.000743
5.310000,	0.318069,	0.000743
5.370000,	0.318069,	0.000743
5.430000,	0.318069,	0.000743
5.490000,	0.318069,	0.000743
5.550000,	0.318069,	0.000743
5.610000,	0.318069,	0.000743
5.670000,	0.318069,	0.000743
5.730000,	0.318069,	0.000743
5.790000,	0.318069,	0.000743
5.850000,	0.318069,	0.000743
5.910000,	0.318069,	0.000743
5.970000,	0.318069,	0.000743
0.030000,	0.096534,	0.000891
0.090000,	0.096534,	0.000891
0.150000,	0.096534,	0.000891
0.210000,	0.096534,	0.000891
0.270000,	0.096534,	0.000891
0.330000,	0.096534,	0.000891
0.390000,	0.096534,	0.000891
0.450000,	0.096534,	0.000891
0.510000,	0.096534,	0.000891
0.570000,	0.096534,	0.000891
0.630000,	0.096534,	0.000891
0.690000,	0.096534,	0.000891
0.750000,	0.096534,	0.000891
0.810000,	0.096534,	0.000891
0.870000,	0.096534,	0.000891
0.930000,	0.096534,	0.000891
0.990000,	0.098874,	0.000890
1.050000,	0.108230,	0.000884
1.110000,	0.122265,	0.000875
1.170000,	0.136300,	0.000866
1.230000,	0.150334,	0.000857
1.290000,	0.164369,	0.000848
1.350000,	0.178403,	0.000839
1.410000,	0.192438,	0.000830
1.470000,	0.206473,	0.000821
1.530000,	0.220507,	0.000812
1.590000,	0.234542,	0.000803
1.650000,	0.248577,	0.000795
1.710000,	0.262612,	0.000786
1.770000,	0.276646,	0.000777
1.830000,	0.290681,	0.000768
1.890000,	0.304716,	0.000759
1.950000,	0.318750,	0.000750
2.010000,	0.328106,	0.000744
2.070000,	0.330446,	0.000743
2.130000,	0.330446,	0.000743
2.190000,	0.330446,	0.000743
2.250000,	0.330446,	0.000743
2.310000,	0.330446,	0.000743
2.370000,	0.330446,	0.000743
2.430000,	0.330446,	0.000743
2.490000,	0.330446,	0.000743
2.550000,	0.330446,	0.000743
2.610000,	0.330446,	0.000743
2.670000,	0.330446,	0.000743
2.730000,	0.330446,	0.000743
2.790000,	0.330446,	0.000743
2.850000,	0.330446,	0.000743
2.910000,	0.330446,	0.000743
2.970000,	0.330446,	0.000743
3.030000,	0.330446,	0.000743
3.090000,	0.330446,	0.000743
3.150000,	0.330446,	0.000743
3.210000,	0.330446,	0.000743
3.270000,	0.330446,	0.000743
3.330000,	0.330446,	0.000743
3.390000,	0.330446,	0.000743
3.450000,	0.330446,	0.000743
3.510000,	0.330446,	0.000743
3.570000,	0.330446,	0.000743
3.630000,	0.330446,	0.000743
3.690000,	0.330446,	0.000743
3.750000,	0.330446,	0.000743
3.810000,	0.330446,	0.000743
3.870000,	0.330446,	0.000743
3.930000,	0.330446,	0.000743
3.990000,	0.330446,	0.000743
4.050000,	0.330446,	0.000743
4.110000,	0.330446,	0.000743
4.170000,	0.330446,	0.000743
4.230000,	0.330446,	0.000743
4.290000,	0.330446,	0.000743
4.350000,	0.330446,	0.000743
4.410000,	0.330446,	0.000743
4.470000,	0.330446,	0.000743
4.530000,	0.330446,	0.000743
4.590000,	0.330446,	0.000743
4.650000,	0.330446,	0.000743
4.710000,	0.330446,	0.000743
4.770000,	0.330446,	0.000743
4.830000,	0.330446,	0.000743
4.890000,	0.330446,	0.000743
4.950000,	0.330446,	0.000743
5.010000,	0.330446,	0.000743
5.070000,	0.330446,	0.000743
5.130000,	0.330446,	0.000743
5.190000,	0.330446,	0.000743
5.250000,	0.330446,	0.000743
5.310000,	0.330446,	0.000743
5.370000,	0.330446,	0.000743
5.430000,	0.330446,	0.000743
5.490000,	0.330446,	0.000743
5.550000,	0.330446,	0.000743
5.610000,	0.330446,	0.000743
5.670000,	0.330446,	0.000743
5.730000,	0.330446,	0.000743
5.790000,	0.330446,	0.000743
5.850000,	0.330446,	0.000743
5.910000,	0.330446,	0.000743
5.970000,	0.330446,	0.000743
0.030000,	0.111386,	0.000891
0.090000,	0.111386,	0.000891
0.150000,	0.111386,	0.000891
0.210000,	0.111386,	0.000891
0.270000,	0.111386,	0.000891
0.330000,	0.111386,	0.000891
0.390000,	0.111386,	0.000891
0.450000,	0.111386,	0.000891
0.510000,	0.111386,	0.000891
0.570000,	0.111386,	0.000891
0.630000,	0.111386,	0.000891
0.690000,	0.111386,	0.000891
0.750000,	0.111386,	0.000891
0.810000,	0.111386,	0.000891
0.870000,	0.111386,	0.000891
0.930000,	0.111386,	0.000891
0.990000,	0.113701,	0.000890
1.050000,	0.122958,	0.000884
1.110000,	0.136844,	0.000875
1.170000,	0.150730,	0.000866
1.230000,	0.164616,	0.000857
1.290000,	0.178502,	0.000848
1.350000,	0.192388,	0.000839
1.410000,	0.206275,	0.000830
1.470000,	0.220161,	0.000821
1.530000,	0.234047,	0.000812
1.590000,	0.247933,	0.000803
1.650000,	0.261819,	0.000795
1.710000,	0.275706,	0.000786
1.770000,	0.289592,	0.000777
1.830000,	0.303478,	0.000768
1.890000,	0.317364,	0.000759
1.950000,	0.331250,	0.000750
2.010000,	0.340507,	0.000744
2.070000,	0.342822,	0.000743
2.130000,	0.342822,	0.000743
2.190000,	0.342822,	0.000743
2.250000,	0.342822,	0.000743
2.310000,	0.342822,	0.000743
2.370000,	0.342822,	0.000743
2.430000,	0.342822,	0.000743
2.490000,	0.342822,	0.000743
2.550000,	0.342822,	0.000743
2.610000,	0.342822,	0.000743
2.670000,	0.342822,	0.000743
2.730000,	0.342822,	0.000743
2.790000,	0.342822,	0.000743
2.850000,	0.342822,	0.000743
2.910000,	0.342822,	0.000743
2.970000,	0.342822,	0.000743
3.030000,	0.342822,	0.000743
3.090000,	0.342822,	0.000743
3.150000,	0.342822,	0.000743
3.210000,	0.342822,	0.000743
3.270000,	0.342822,	0.000743
3.330000,	0.342822,	0.000743
3.390000,	0.342822,	0.000743
3.450000,	0.342822,	0.000743
3.510000,	0.342822,	0.000743
3.570000,	0.342822,	0.000743
3.630000,	0.342822,	0.000743
3.690000,	0.342822,	0.000743
3.750000,	0.342822,	0.000743
3.810000,	0.342822,	0.000743
3.870000,	0.342822,	0.000743
3.930000,	0.342822,	0.000743
3.990000,	0.342822,	0.000743
4.050000,	0.342822,	0.000743
4.110000,	0.342822,	0.000743
4.170000,	0.342822,	0.000743
4.230000,	0.342822,	0.000743
4.290000,	0.342822,	0.000743
4.350000,	0.342822,	0.000743
4.410000,	0.342822,	0.000743
4.470000,	0.342822,	0.000743
4.530000,	0.342822,	0.000743
4.590000,	0.342822,	0.000743
4.650000,	0.342822,	0.000743
4.710000,	0.342822,	0.000743
4.770000,	0.342822,	0.000743
4.830000,	0.342822,	0.000743
4.890000,	0.342822,	0.000743
4.950000,	0.342822,	0.000743
5.010000,	0.342822,	0.000743
5.070000,	0.342822,	0.000743
5.130000,	0.342822,	0.000743
5.190000,	0.342822,	0.000743
5.250000,	0.342822,	0.000743
5.310000,	0.342822,	0.000743
5.370000,	0.342822,	0.000743
5.430000,	0.342822,	0.000743
5.490000,	0.342822,	0.000743
5.550000,	0.342822,	0.000743
5.610000,	0.342822,	0.000743
5.670000,	0.342822,	0.000743
5.730000,	0.342822,	0.000743
5.790000,	0.342822,	0.000743
5.850000,	0.342822,	0.000743
5.910000,	0.342822,	0.000743
5.970000,	0.342822,	0.000743
0.030000,	0.126238,	0.000891
0.090000,	0.126238,	0.000891
0.150000,	0.126238,	0.000891
0.210000,	0.126238,	0.000891
0.270000,	0.126238,	0.000891
0.330000,	0.126238,	0.000891
0.390000,	0.126238,	0.000891
0.450000,	0.126238,	0.000891
0.510000,	0.126238,	0.000891
0.570000,	0.126238,	0.000891
0.630000,	0.126238,	0.000891
0.690000,	0.126238,	0.000891
0.750000,	0.126238,	0.000891
0.810000,	0.126238,	0.000891
0.870000,	0.126238,	0.000891
0.930000,	0.126238,	0.000891
0.990000,	0.128527,	0.000890
1.050000,	0.137686,	0.000884
1.110000,	0.151423,	0.000875
1.170000,	0.165161,	0.000866
1.230000,	0.178898,	0.000857
1.290000,	0.192636,	0.000848
1.350000,	0.206374,	0.000839
1.410000,	0.220111,	0.000830
1.470000,	0.233849,	0.000821
1.530000,	0.247587,	0.000812
1.590000,	0.261324,	0.000803
1.650000,	0.275062,	0.000795
1.710000,	0.288799,	0.000786
1.770000,	0.302537,	0.000777
1.830000,	0.316275,	0.000768
1.890000,	0.330012,	0.000759
1.950000,	0.343750,	0.000750
2.010000,	0.352908,	0.000744
2.070000,	0.355198,	0.000743
2.130000,	0.355198,	0.000743
2.190000,	0.355198,	0.000743
2.250000,	0.355198,	0.000743
2.310000,	0.355198,	0.000743
2.370000,	0.355198,	0.000743
2.430000,	0.355198,	0.000743
2.490000,	0.355198,	0.000743
2.550000,	0.355198,	0.000743
2.610000,	0.355198,	0.000743
2.670000,	0.355198,	0.000743
2.730000,	0.355198,	0.000743
2.790000,	0.355198,	0.000743
2.850000,	0.355198,	0.000743
2.910000,	0.355198,	0.000743
2.970000,	0.355198,	0.000743
3.030000,	0.355198,	0.000743
3.090000,	0.355198,	0.000743
3.150000,	0.355198,	0.000743
3.210000,	0.355198,	0.000743
3.270000,	0.355198,	0.000743
3.330000,	0.355198,	0.000743
3.390000,	0.355198,	0.000743
3.450000,	0.355198,	0.000743
3.510000,	0.355198,	0.000743
3.570000,	0.355198,	0.000743
3.630000,	0.355198,	0.000743
3.690000,	0.355198,	0.000743
3.750000,	0.355198,	0.000743
3.810000,	0.355198,	0.000743
3.870000,	0.355198,	0.000743
3.930000,	0.355198,	0.000743
3.990000,	0.355198,	0.000743
4.050000,	0.355198,	0.000743
4.110000,	0.355198,	0.000743
4.170000,	0.355198,	0.000743
4.230000,	0.355198,	0.000743
4.290000,	0.355198,	0.000743
4.350000,	0.355198,	0.000743
4.410000,	0.355198,	0.000743
4.470000,	0.355198,	0.000743
4.530000,	0.355198,	0.000743
4.590000,	0.355198,	0.000743
4.650000,	0.355198,	0.000743
4.710000,	0.355198,	0.000743
4.770000,	0.355198,	0.000743
4.830000,	0.355198,	0.000743
4.890000,	0.355198,	0.000743
4.950000,	0.355198,	0.000743
5.010000,	0.355198,	0.000743
5.070000,	0.355198,	0.000743
5.130000,	0.355198,	0.000743
5.190000,	0.355198,	0.000743
5.250000,	0.355198,	0.000743
5.310000,	0.355198,	0.000743
5.370000,	0.355198,	0.000743
5.430000,	0.355198,	0.000743
5.490000,	0.355198,	0.000743
5.550000,	0.355198,	0.000743
5.610000,	0.355198,	0.000743
5.670000,	0.355198,	0.000743
5.730000,	0.355198,	0.000743
5.790000,	0.355198,	0.000743
5.850000,	0.355198,	0.000743
5.910000,	0.355198,	0.000743
5.970000,	0.355198,	0.000743
0.030000,	0.141089,	0.000891
0.090000,	0.141089,	0.000891
0.150000,	0.141089,	0.000891
0.210000,	0.141089,	0.000891
0.270000,	0.141089,	0.000891
0.330000,	0.141089,	0.000891
0.390000,	0.141089,	0.000891
0.450000,	0.141089,	0.000891
0.510000,	0.141089,	0.000891
0.570000,	0.141089,	0.000891
0.630000,	0.141089,	0.000891
0.690000,	0.141089,	0.000891
0.750000,	0.141089,	0.000891
0.810000,	0.141089,	0.000891
0.870000,	0.141089,	0.000891
0.930000,	0.141089,	0.000891
0.990000,	0.143354,	0.000890
1.050000,	0.152413,	0.000884
1.110000,	0.166003,	0.000875
1.170000,	0.179592,	0.000866
1.230000,	0.193181,	0.000857
1.290000,	0.206770,	0.000848
1.350000,	0.220359,	0.000839
1.410000,	0.233948,	0.000830
1.470000,	0.247537,	0.000821
1.530000,	0.261126,	0.000812
1.590000,	0.274715,	0.000803
1.650000,	0.288304,	0.000795
1.710000,	0.301893,	0.000786
1.770000,	0.315483,	0.000777
1.830000,	0.329072,	0.000768
1.890000,	0.342661,	0.000759
1.950000,	0.356250,	0.000750
2.010000,	0.365309,	0.000744
2.070000,	0.367574,	0.000743
2.130000,	0.367574,	0.000743
2.190000,	0.367574,	0.000743
2.250000,	0.367574,	0.000743
2.310000,	0.367574,	0.000743
2.370000,	0.367574,	0.000743
2.430000,	0.367574,	0.000743
2.490000,	0.367574,	0.000743
2.550000,	0.367574,	0.000743
2.610000,	0.367574,	0.000743
2.670000,	0.367574,	0.000743
2.730000,	0.367574,	0.000743
2.790000,	0.367574,	0.000743
2.850000,	0.367574,	0.000743
2.910000,	0.367574,	0.000743
2.970000,	0.367574,	0.000743
3.030000,	0.367574,	0.000743
3.090000,	0.367574,	0.000743
3.150000,	0.367574,	0.000743
3.210000,	0.367574,	0.000743
3.270000,	0.367574,	0.000743
3.330000,	0.367574,	0.000743
3.390000,	0.367574,	0.000743
3.450000,	0.367574,	0.000743
3.510000,	0.367574,	0.000743
3.570000,	0.367574,	0.000743
3.630000,	0.367574,	0.000743
3.690000,	0.367574,	0.000743
3.750000,	0.367574,	0.000743
3.810000,	0.367574,	0.000743
3.870000,	0.367574,	0.000743
3.930000,	0.367574,	0.000743
3.990000,	0.367574,	0.000743
4.050000,	0.367574,	0.000743
4.110000,	0.367574,	0.000743
4.170000,	0.367574,	0.000743
4.230000,	0.367574,	0.000743
4.290000,	0.367574,	0.000743
4.350000,	0.367574,	0.000743
4.410000,	0.367574,	0.000743
4.470000,	0.367574,	0.000743
4.530000,	0.367574,	0.000743
4.590000,	0.367574,	0.000743
4.650000,	0.367574,	0.000743
4.710000,	0.367574,	0.000743
4.770000,	0.367574,	0.000743
4.830000,	0.367574,	0.000743
4.890000,	0.367574,	0.000743
4.950000,	0.367574,	0.000743
5.010000,	0.367574,	0.000743
5.070000,	0.367574,	0.000743
5.130000,	0.367574,	0.000743
5.190000,	0.367574,	0.000743
5.250000,	0.367574,	0.000743
5.310000,	0.367574,	0.000743
5.370000,	0.367574,	0.000743
5.430000,	0.367574,	0.000743
5.490000,	0.367574,	0.000743
5.550000,	0.367574,	0.000743
5.610000,	0.367574,	0.000743
5.670000,	0.367574,	0.000743
5.730000,	0.367574,	0.000743
5.790000,	0.367574,	0.000743
5.850000,	0.367574,	0.000743
5.910000,	0.367574,	0.000743
5.970000,	0.367574,	0.000743
0.030000,	0.155941,	0.000891
0.090000,	0.155941,	0.000891
0.150000,	0.155941,	0.000891
0.210000,	0.155941,	0.000891
0.270000,	0.155941,	0.000891
0.330000,	0.155941,	0.000891
0.390000,	0.155941,	0.000891
0.450000,	0.155941,	0.000891
0.510000,	0.155941,	0.000891
0.570000,	0.155941,	0.000891
0.630000,	0.155941,	0.000891
0.690000,	0.155941,	0.000891
0.750000,	0.155941,	0.000891
0.810000,	0.155941,	0.000891
0.870000,	0.155941,	0.000891
0.930000,	0.155941,	0.000891
0.990000,	0.158181,	0.000890
1.050000,	0.167141,	0.000884
1.110000,	0.180582,	0.000875
1.170000,	0.194022,	0.000866
1.230000,	0.207463,	0.000857
1.290000,	0.220903,	0.000848
1.350000,	0.234344,	0.000839
1.410000,	0.247785,	0.000830
1.470000,	0.261225,	0.000821
1.530000,	0.274666,	0.000812
1.590000,	0.288106,	0.000803
1.650000,	0.301547,	0.000795
1.710000,	0.314987,	0.000786
1.770000,	0.328428,	0.000777
1.830000,	0.341869,	0.000768