TITLE = "2DRampMesh"
VARIABLES = "X", "Y"
ZONE I=100, J=100, DATAPACKING=POINT
0.000000,	0.000000
0.030303,	0.000000
0.060606,	0.000000
0.090909,	0.000000
0.121212,	0.000000
0.151515,	0.000000
0.181818,	0.000000
0.212121,	0.000000
0.242424,	0.000000
0.272727,	0.000000
0.303030,	0.000000
0.333333,	0.000000
0.363636,	0.000000
0.393939,	0.000000
0.424242,	0.000000
0.454545,	0.000000
0.484848,	0.000000
0.515152,	0.000000
0.545455,	0.000000
0.575758,	0.000000
0.606061,	0.000000
0.636364,	0.000000
0.666667,	0.000000
0.696970,	0.000000
0.727273,	0.000000
0.757576,	0.000000
0.787879,	0.000000
0.818182,	0.000000
0.848485,	0.000000
0.878788,	0.000000
0.909091,	0.000000
0.939394,	0.000000
0.969697,	0.000000
1.000000,	0.000000
1.030303,	0.007576
1.060606,	0.015152
1.090909,	0.022727
1.121212,	0.030303
1.151515,	0.037879
1.181818,	0.045455
1.212121,	0.053030
1.242424,	0.060606
1.272727,	0.068182
1.303030,	0.075758
1.333333,	0.083333
1.363636,	0.090909
1.393939,	0.098485
1.424242,	0.106061
1.454545,	0.113636
1.484848,	0.121212
1.515152,	0.128788
1.545455,	0.136364
1.575758,	0.143939
1.606061,	0.151515
1.636364,	0.159091
1.666667,	0.166667
1.696970,	0.174242
1.727273,	0.181818
1.757576,	0.189394
1.787879,	0.196970
1.818182,	0.204545
1.848485,	0.212121
1.878788,	0.219697
1.909091,	0.227273
1.939394,	0.234848
1.969697,	0.242424
2.000000,	0.250000
2.030303,	0.250000
2.060606,	0.250000
2.090909,	0.250000
2.121212,	0.250000
2.151515,	0.250000
2.181818,	0.250000
2.212121,	0.250000
2.242424,	0.250000
2.272727,	0.250000
2.303030,	0.250000
2.333333,	0.250000
2.363636,	0.250000
2.393939,	0.250000
2.424242,	0.250000
2.454545,	0.250000
2.484848,	0.250000
2.515152,	0.250000
2.545455,	0.250000
2.575758,	0.250000
2.606061,	0.250000
2.636364,	0.250000
2.666667,	0.250000
2.696970,	0.250000
2.727273,	0.250000
2.757576,	0.250000
2.787879,	0.250000
2.818182,	0.250000
2.848485,	0.250000
2.878788,	0.250000
2.909091,	0.250000
2.939394,	0.250000
2.969697,	0.250000
3.000000,	0.250000
0.000000,	0.010000
0.030303,	0.010000
0.060606,	0.010000
0.090909,	0.010000
0.121212,	0.010000
0.151515,	0.010000
0.181818,	0.010000
0.212121,	0.010000
0.242424,	0.010000
0.272727,	0.010000
0.303030,	0.010000
0.333333,	0.010000
0.363636,	0.010000
0.393939,	0.010000
0.424242,	0.010000
0.454545,	0.010000
0.484848,	0.010000
0.515152,	0.010000
0.545455,	0.010000
0.575758,	0.010000
0.606061,	0.010000
0.636364,	0.010000
0.666667,	0.010000
0.696970,	0.010000
0.727273,	0.010000
0.757576,	0.010000
0.787879,	0.010000
0.818182,	0.010000
0.848485,	0.010000
0.878788,	0.010000
0.909091,	0.010000
0.939394,	0.010000
0.969697,	0.010000
1.000000,	0.010000
1.030303,	0.017500
1.060606,	0.025000
1.090909,	0.032500
1.121212,	0.040000
1.151515,	0.047500
1.181818,	0.055000
1.212121,	0.062500
1.242424,	0.070000
1.272727,	0.077500
1.303030,	0.085000
1.333333,	0.092500
1.363636,	0.100000
1.393939,	0.107500
1.424242,	0.115000
1.454545,	0.122500
1.484848,	0.130000
1.515152,	0.137500
1.545455,	0.145000
1.575758,	0.152500
1.606061,	0.160000
1.636364,	0.167500
1.666667,	0.175000
1.696970,	0.182500
1.727273,	0.190000
1.757576,	0.197500
1.787879,	0.205000
1.818182,	0.212500
1.848485,	0.220000
1.878788,	0.227500
1.909091,	0.235000
1.939394,	0.242500
1.969697,	0.250000
2.000000,	0.257500
2.030303,	0.257500
2.060606,	0.257500
2.090909,	0.257500
2.121212,	0.257500
2.151515,	0.257500
2.181818,	0.257500
2.212121,	0.257500
2.242424,	0.257500
2.272727,	0.257500
2.303030,	0.257500
2.333333,	0.257500
2.363636,	0.257500
2.393939,	0.257500
2.424242,	0.257500
2.454545,	0.257500
2.484848,	0.257500
2.515152,	0.257500
2.545455,	0.257500
2.575758,	0.257500
2.606061,	0.257500
2.636364,	0.257500
2.666667,	0.257500
2.696970,	0.257500
2.727273,	0.257500
2.757576,	0.257500
2.787879,	0.257500
2.818182,	0.257500
2.848485,	0.257500
2.878788,	0.257500
2.909091,	0.257500
2.939394,	0.257500
2.969697,	0.257500
3.000000,	0.257500
0.000000,	0.020000
0.030303,	0.020000
0.060606,	0.020000
0.090909,	0.020000
0.121212,	0.020000
0.151515,	0.020000
0.181818,	0.020000
0.212121,	0.020000
0.242424,	0.020000
0.272727,	0.020000
0.303030,	0.020000
0.333333,	0.020000
0.363636,	0.020000
0.393939,	0.020000
0.424242,	0.020000
0.454545,	0.020000
0.484848,	0.020000
0.515152,	0.020000
0.545455,	0.020000
0.575758,	0.020000
0.606061,	0.020000
0.636364,	0.020000
0.666667,	0.020000
0.696970,	0.020000
0.727273,	0.020000
0.757576,	0.020000
0.787879,	0.020000
0.818182,	0.020000
0.848485,	0.020000
0.878788,	0.020000
0.909091,	0.020000
0.939394,	0.020000
0.969697,	0.020000
1.000000,	0.020000
1.030303,	0.027424
1.060606,	0.034848
1.090909,	0.042273
1.121212,	0.049697
1.151515,	0.057121
1.181818,	0.064545
1.212121,	0.071970
1.242424,	0.079394
1.272727,	0.086818
1.303030,	0.094242
1.333333,	0.101667
1.363636,	0.109091
1.393939,	0.116515
1.424242,	0.123939
1.454545,	0.131364
1.484848,	0.138788
1.515152,	0.146212
1.545455,	0.153636
1.575758,	0.161061
1.606061,	0.168485
1.636364,	0.175909
1.666667,	0.183333
1.696970,	0.190758
1.727273,	0.198182
1.757576,	0.205606
1.787879,	0.213030
1.818182,	0.220455
1.848485,	0.227879
1.878788,	0.235303
1.909091,	0.242727
1.939394,	0.250152
1.969697,	0.257576
2.000000,	0.265000
2.030303,	0.265000
2.060606,	0.265000
2.090909,	0.265000
2.121212,	0.265000
2.151515,	0.265000
2.181818,	0.265000
2.212121,	0.265000
2.242424,	0.265000
2.272727,	0.265000
2.303030,	0.265000
2.333333,	0.265000
2.363636,	0.265000
2.393939,	0.265000
2.424242,	0.265000
2.454545,	0.265000
2.484848,	0.265000
2.515152,	0.265000
2.545455,	0.265000
2.575758,	0.265000
2.606061,	0.265000
2.636364,	0.265000
2.666667,	0.265000
2.696970,	0.265000
2.727273,	0.265000
2.757576,	0.265000
2.787879,	0.265000
2.818182,	0.265000
2.848485,	0.265000
2.878788,	0.265000
2.909091,	0.265000
2.939394,	0.265000
2.969697,	0.265000
3.000000,	0.265000
0.000000,	0.030000
0.030303,	0.030000
0.060606,	0.030000
0.090909,	0.030000
0.121212,	0.030000
0.151515,	0.030000
0.181818,	0.030000
0.212121,	0.030000
0.242424,	0.030000
0.272727,	0.030000
0.303030,	0.030000
0.333333,	0.030000
0.363636,	0.030000
0.393939,	0.030000
0.424242,	0.030000
0.454545,	0.030000
0.484848,	0.030000
0.515152,	0.030000
0.545455,	0.030000
0.575758,	0.030000
0.606061,	0.030000
0.636364,	0.030000
0.666667,	0.030000
0.696970,	0.030000
0.727273,	0.030000
0.757576,	0.030000
0.787879,	0.030000
0.818182,	0.030000
0.848485,	0.030000
0.878788,	0.030000
0.909091,	0.030000
0.939394,	0.030000
0.969697,	0.030000
1.000000,	0.030000
1.030303,	0.037348
1.060606,	0.044697
1.090909,	0.052045
1.121212,	0.059394
1.151515,	0.066742
1.181818,	0.074091
1.212121,	0.081439
1.242424,	0.088788
1.272727,	0.096136
1.303030,	0.103485
1.333333,	0.110833
1.363636,	0.118182
1.393939,	0.125530
1.424242,	0.132879
1.454545,	0.140227
1.484848,	0.147576
1.515152,	0.154924
1.545455,	0.162273
1.575758,	0.169621
1.606061,	0.176970
1.636364,	0.184318
1.666667,	0.191667
1.696970,	0.199015
1.727273,	0.206364
1.757576,	0.213712
1.787879,	0.221061
1.818182,	0.228409
1.848485,	0.235758
1.878788,	0.243106
1.909091,	0.250455
1.939394,	0.257803
1.969697,	0.265152
2.000000,	0.272500
2.030303,	0.272500
2.060606,	0.272500
2.090909,	0.272500
2.121212,	0.272500
2.151515,	0.272500
2.181818,	0.272500
2.212121,	0.272500
2.242424,	0.272500
2.272727,	0.272500
2.303030,	0.272500
2.333333,	0.272500
2.363636,	0.272500
2.393939,	0.272500
2.424242,	0.272500
2.454545,	0.272500
2.484848,	0.272500
2.515152,	0.272500
2.545455,	0.272500
2.575758,	0.272500
2.606061,	0.272500
2.636364,	0.272500
2.666667,	0.272500
2.696970,	0.272500
2.727273,	0.272500
2.757576,	0.272500
2.787879,	0.272500
2.818182,	0.272500
2.848485,	0.272500
2.878788,	0.272500
2.909091,	0.272500
2.939394,	0.272500
2.969697,	0.272500
3.000000,	0.272500
0.000000,	0.040000
0.030303,	0.040000
0.060606,	0.040000
0.090909,	0.040000
0.121212,	0.040000
0.151515,	0.040000
0.181818,	0.040000
0.212121,	0.040000
0.242424,	0.040000
0.272727,	0.040000
0.303030,	0.040000
0.333333,	0.040000
0.363636,	0.040000
0.393939,	0.040000
0.424242,	0.040000
0.454545,	0.040000
0.484848,	0.040000
0.515152,	0.040000
0.545455,	0.040000
0.575758,	0.040000
0.606061,	0.040000
0.636364,	0.040000
0.666667,	0.040000
0.696970,	0.040000
0.727273,	0.040000
0.757576,	0.040000
0.787879,	0.040000
0.818182,	0.040000
0.848485,	0.040000
0.878788,	0.040000
0.909091,	0.040000
0.939394,	0.040000
0.969697,	0.040000
1.000000,	0.040000
1.030303,	0.047273
1.060606,	0.054545
1.090909,	0.061818
1.121212,	0.069091
1.151515,	0.076364
1.181818,	0.083636
1.212121,	0.090909
1.242424,	0.098182
1.272727,	0.105455
1.303030,	0.112727
1.333333,	0.120000
1.363636,	0.127273
1.393939,	0.134545
1.424242,	0.141818
1.454545,	0.149091
1.484848,	0.156364
1.515152,	0.163636
1.545455,	0.170909
1.575758,	0.178182
1.606061,	0.185455
1.636364,	0.192727
1.666667,	0.200000
1.696970,	0.207273
1.727273,	0.214545
1.757576,	0.221818
1.787879,	0.229091
1.818182,	0.236364
1.848485,	0.243636
1.878788,	0.250909
1.909091,	0.258182
1.939394,	0.265455
1.969697,	0.272727
2.000000,	0.280000
2.030303,	0.280000
2.060606,	0.280000
2.090909,	0.280000
2.121212,	0.280000
2.151515,	0.280000
2.181818,	0.280000
2.212121,	0.280000
2.242424,	0.280000
2.272727,	0.280000
2.303030,	0.280000
2.333333,	0.280000
2.363636,	0.280000
2.393939,	0.280000
2.424242,	0.280000
2.454545,	0.280000
2.484848,	0.280000
2.515152,	0.280000
2.545455,	0.280000
2.575758,	0.280000
2.606061,	0.280000
2.636364,	0.280000
2.666667,	0.280000
2.696970,	0.280000
2.727273,	0.280000
2.757576,	0.280000
2.787879,	0.280000
2.818182,	0.280000
2.848485,	0.280000
2.878788,	0.280000
2.909091,	0.280000
2.939394,	0.280000
2.969697,	0.280000
3.000000,	0.280000
0.000000,	0.050000
0.030303,	0.050000
0.060606,	0.050000
0.090909,	0.050000
0.121212,	0.050000
0.151515,	0.050000
0.181818,	0.050000
0.212121,	0.050000
0.242424,	0.050000
0.272727,	0.050000
0.303030,	0.050000
0.333333,	0.050000
0.363636,	0.050000
0.393939,	0.050000
0.424242,	0.050000
0.454545,	0.050000
0.484848,	0.050000
0.515152,	0.050000
0.545455,	0.050000
0.575758,	0.050000
0.606061,	0.050000
0.636364,	0.050000
0.666667,	0.050000
0.696970,	0.050000
0.727273,	0.050000
0.757576,	0.050000
0.787879,	0.050000
0.818182,	0.050000
0.848485,	0.050000
0.878788,	0.050000
0.909091,	0.050000
0.939394,	0.050000
0.969697,	0.050000
1.000000,	0.050000
1.030303,	0.057197
1.060606,	0.064394
1.090909,	0.071591
1.121212,	0.078788
1.151515,	0.085985
1.181818,	0.093182
1.212121,	0.100379
1.242424,	0.107576
1.272727,	0.114773
1.303030,	0.121970
1.333333,	0.129167
1.363636,	0.136364
1.393939,	0.143561
1.424242,	0.150758
1.454545,	0.157955
1.484848,	0.165152
1.515152,	0.172348
1.545455,	0.179545
1.575758,	0.186742
1.606061,	0.193939
1.636364,	0.201136
1.666667,	0.208333
1.696970,	0.215530
1.727273,	0.222727
1.757576,	0.229924
1.787879,	0.237121
1.818182,	0.244318
1.848485,	0.251515
1.878788,	0.258712
1.909091,	0.265909
1.939394,	0.273106
1.969697,	0.280303
2.000000,	0.287500
2.030303,	0.287500
2.060606,	0.287500
2.090909,	0.287500
2.121212,	0.287500
2.151515,	0.287500
2.181818,	0.287500
2.212121,	0.287500
2.242424,	0.287500
2.272727,	0.287500
2.303030,	0.287500
2.333333,	0.287500
2.363636,	0.287500
2.393939,	0.287500
2.424242,	0.287500
2.454545,	0.287500
2.484848,	0.287500
2.515152,	0.287500
2.545455,	0.287500
2.575758,	0.287500
2.606061,	0.287500
2.636364,	0.287500
2.666667,	0.287500
2.696970,	0.287500
2.727273,	0.287500
2.757576,	0.287500
2.787879,	0.287500
2.818182,	0.287500
2.848485,	0.287500
2.878788,	0.287500
2.909091,	0.287500
2.939394,	0.287500
2.969697,	0.287500
3.000000,	0.287500
0.000000,	0.060000
0.030303,	0.060000
0.060606,	0.060000
0.090909,	0.060000
0.121212,	0.060000
0.151515,	0.060000
0.181818,	0.060000
0.212121,	0.060000
0.242424,	0.060000
0.272727,	0.060000
0.303030,	0.060000
0.333333,	0.060000
0.363636,	0.060000
0.393939,	0.060000
0.424242,	0.060000
0.454545,	0.060000
0.484848,	0.060000
0.515152,	0.060000
0.545455,	0.060000
0.575758,	0.060000
0.606061,	0.060000
0.636364,	0.060000
0.666667,	0.060000
0.696970,	0.060000
0.727273,	0.060000
0.757576,	0.060000
0.787879,	0.060000
0.818182,	0.060000
0.848485,	0.060000
0.878788,	0.060000
0.909091,	0.060000
0.939394,	0.060000
0.969697,	0.060000
1.000000,	0.060000
1.030303,	0.067121
1.060606,	0.074242
1.090909,	0.081364
1.121212,	0.088485
1.151515,	0.095606
1.181818,	0.102727
1.212121,	0.109848
1.242424,	0.116970
1.272727,	0.124091
1.303030,	0.131212
1.333333,	0.138333
1.363636,	0.145455
1.393939,	0.152576
1.424242,	0.159697
1.454545,	0.166818
1.484848,	0.173939
1.515152,	0.181061
1.545455,	0.188182
1.575758,	0.195303
1.606061,	0.202424
1.636364,	0.209545
1.666667,	0.216667
1.696970,	0.223788
1.727273,	0.230909
1.757576,	0.238030
1.787879,	0.245152
1.818182,	0.252273
1.848485,	0.259394
1.878788,	0.266515
1.909091,	0.273636
1.939394,	0.280758
1.969697,	0.287879
2.000000,	0.295000
2.030303,	0.295000
2.060606,	0.295000
2.090909,	0.295000
2.121212,	0.295000
2.151515,	0.295000
2.181818,	0.295000
2.212121,	0.295000
2.242424,	0.295000
2.272727,	0.295000
2.303030,	0.295000
2.333333,	0.295000
2.363636,	0.295000
2.393939,	0.295000
2.424242,	0.295000
2.454545,	0.295000
2.484848,	0.295000
2.515152,	0.295000
2.545455,	0.295000
2.575758,	0.295000
2.606061,	0.295000
2.636364,	0.295000
2.666667,	0.295000
2.696970,	0.295000
2.727273,	0.295000
2.757576,	0.295000
2.787879,	0.295000
2.818182,	0.295000
2.848485,	0.295000
2.878788,	0.295000
2.909091,	0.295000
2.939394,	0.295000
2.969697,	0.295000
3.000000,	0.295000
0.000000,	0.070000
0.030303,	0.070000
0.060606,	0.070000
0.090909,	0.070000
0.121212,	0.070000
0.151515,	0.070000
0.181818,	0.070000
0.212121,	0.070000
0.242424,	0.070000
0.272727,	0.070000
0.303030,	0.070000
0.333333,	0.070000
0.363636,	0.070000
0.393939,	0.070000
0.424242,	0.070000
0.454545,	0.070000
0.484848,	0.070000
0.515152,	0.070000
0.545455,	0.070000
0.575758,	0.070000
0.606061,	0.070000
0.636364,	0.070000
0.666667,	0.070000
0.696970,	0.070000
0.727273,	0.070000
0.757576,	0.070000
0.787879,	0.070000
0.818182,	0.070000
0.848485,	0.070000
0.878788,	0.070000
0.909091,	0.070000
0.939394,	0.070000
0.969697,	0.070000
1.000000,	0.070000
1.030303,	0.077045
1.060606,	0.084091
1.090909,	0.091136
1.121212,	0.098182
1.151515,	0.105227
1.181818,	0.112273
1.212121,	0.119318
1.242424,	0.126364
1.272727,	0.133409
1.303030,	0.140455
1.333333,	0.147500
1.363636,	0.154545
1.393939,	0.161591
1.424242,	0.168636
1.454545,	0.175682
1.484848,	0.182727
1.515152,	0.189773
1.545455,	0.196818
1.575758,	0.203864
1.606061,	0.210909
1.636364,	0.217955
1.666667,	0.225000
1.696970,	0.232045
1.727273,	0.239091
1.757576,	0.246136
1.787879,	0.253182
1.818182,	0.260227
1.848485,	0.267273
1.878788,	0.274318
1.909091,	0.281364
1.939394,	0.288409
1.969697,	0.295455
2.000000,	0.302500
2.030303,	0.302500
2.060606,	0.302500
2.090909,	0.302500
2.121212,	0.302500
2.151515,	0.302500
2.181818,	0.302500
2.212121,	0.302500
2.242424,	0.302500
2.272727,	0.302500
2.303030,	0.302500
2.333333,	0.302500
2.363636,	0.302500
2.393939,	0.302500
2.424242,	0.302500
2.454545,	0.302500
2.484848,	0.302500
2.515152,	0.302500
2.545455,	0.302500
2.575758,	0.302500
2.606061,	0.302500
2.636364,	0.302500
2.666667,	0.302500
2.696970,	0.302500
2.727273,	0.302500
2.757576,	0.302500
2.787879,	0.302500
2.818182,	0.302500
2.848485,	0.302500
2.878788,	0.302500
2.909091,	0.302500
2.939394,	0.302500
2.969697,	0.302500
3.000000,	0.302500
0.000000,	0.080000
0.030303,	0.080000
0.060606,	0.080000
0.090909,	0.080000
0.121212,	0.080000
0.151515,	0.080000
0.181818,	0.080000
0.212121,	0.080000
0.242424,	0.080000
0.272727,	0.080000
0.303030,	0.080000
0.333333,	0.080000
0.363636,	0.080000
0.393939,	0.080000
0.424242,	0.080000
0.454545,	0.080000
0.484848,	0.080000
0.515152,	0.080000
0.545455,	0.080000
0.575758,	0.080000
0.606061,	0.080000
0.636364,	0.080000
0.666667,	0.080000
0.696970,	0.080000
0.727273,	0.080000
0.757576,	0.080000
0.787879,	0.080000
0.818182,	0.080000
0.848485,	0.080000
0.878788,	0.080000
0.909091,	0.080000
0.939394,	0.080000
0.969697,	0.080000
1.000000,	0.080000
1.030303,	0.086970
1.060606,	0.093939
1.090909,	0.100909
1.121212,	0.107879
1.151515,	0.114848
1.181818,	0.121818
1.212121,	0.128788
1.242424,	0.135758
1.272727,	0.142727
1.303030,	0.149697
1.333333,	0.156667
1.363636,	0.163636
1.393939,	0.170606
1.424242,	0.177576
1.454545,	0.184545
1.484848,	0.191515
1.515152,	0.198485
1.545455,	0.205455
1.575758,	0.212424
1.606061,	0.219394
1.636364,	0.226364
1.666667,	0.233333
1.696970,	0.240303
1.727273,	0.247273
1.757576,	0.254242
1.787879,	0.261212
1.818182,	0.268182
1.848485,	0.275152
1.878788,	0.282121
1.909091,	0.289091
1.939394,	0.296061
1.969697,	0.303030
2.000000,	0.310000
2.030303,	0.310000
2.060606,	0.310000
2.090909,	0.310000
2.121212,	0.310000
2.151515,	0.310000
2.181818,	0.310000
2.212121,	0.310000
2.242424,	0.310000
2.272727,	0.310000
2.303030,	0.310000
2.333333,	0.310000
2.363636,	0.310000
2.393939,	0.310000
2.424242,	0.310000
2.454545,	0.310000
2.484848,	0.310000
2.515152,	0.310000
2.545455,	0.310000
2.575758,	0.310000
2.606061,	0.310000
2.636364,	0.310000
2.666667,	0.310000
2.696970,	0.310000
2.727273,	0.310000
2.757576,	0.310000
2.787879,	0.310000
2.818182,	0.310000
2.848485,	0.310000
2.878788,	0.310000
2.909091,	0.310000
2.939394,	0.310000
2.969697,	0.310000
3.000000,	0.310000
0.000000,	0.090000
0.030303,	0.090000
0.060606,	0.090000
0.090909,	0.090000
0.121212,	0.090000
0.151515,	0.090000
0.181818,	0.090000
0.212121,	0.090000
0.242424,	0.090000
0.272727,	0.090000
0.303030,	0.090000
0.333333,	0.090000
0.363636,	0.090000
0.393939,	0.090000
0.424242,	0.090000
0.454545,	0.090000
0.484848,	0.090000
0.515152,	0.090000
0.545455,	0.090000
0.575758,	0.090000
0.606061,	0.090000
0.636364,	0.090000
0.666667,	0.090000
0.696970,	0.090000
0.727273,	0.090000
0.757576,	0.090000
0.787879,	0.090000
0.818182,	0.090000
0.848485,	0.090000
0.878788,	0.090000
0.909091,	0.090000
0.939394,	0.090000
0.969697,	0.090000
1.000000,	0.090000
1.030303,	0.096894
1.060606,	0.103788
1.090909,	0.110682
1.121212,	0.117576
1.151515,	0.124470
1.181818,	0.131364
1.212121,	0.138258
1.242424,	0.145152
1.272727,	0.152045
1.303030,	0.158939
1.333333,	0.165833
1.363636,	0.172727
1.393939,	0.179621
1.424242,	0.186515
1.454545,	0.193409
1.484848,	0.200303
1.515152,	0.207197
1.545455,	0.214091
1.575758,	0.220985
1.606061,	0.227879
1.636364,	0.234773
1.666667,	0.241667
1.696970,	0.248561
1.727273,	0.255455
1.757576,	0.262348
1.787879,	0.269242
1.818182,	0.276136
1.848485,	0.283030
1.878788,	0.289924
1.909091,	0.296818
1.939394,	0.303712
1.969697,	0.310606
2.000000,	0.317500
2.030303,	0.317500
2.060606,	0.317500
2.090909,	0.317500
2.121212,	0.317500
2.151515,	0.317500
2.181818,	0.317500
2.212121,	0.317500
2.242424,	0.317500
2.272727,	0.317500
2.303030,	0.317500
2.333333,	0.317500
2.363636,	0.317500
2.393939,	0.317500
2.424242,	0.317500
2.454545,	0.317500
2.484848,	0.317500
2.515152,	0.317500
2.545455,	0.317500
2.575758,	0.317500
2.606061,	0.317500
2.636364,	0.317500
2.666667,	0.317500
2.696970,	0.317500
2.727273,	0.317500
2.757576,	0.317500
2.787879,	0.317500
2.818182,	0.317500
2.848485,	0.317500
2.878788,	0.317500
2.909091,	0.317500
2.939394,	0.317500
2.969697,	0.317500
3.000000,	0.317500
0.000000,	0.100000
0.030303,	0.100000
0.060606,	0.100000
0.090909,	0.100000
0.121212,	0.100000
0.151515,	0.100000
0.181818,	0.100000
0.212121,	0.100000
0.242424,	0.100000
0.272727,	0.100000
0.303030,	0.100000
0.333333,	0.100000
0.363636,	0.100000
0.393939,	0.100000
0.424242,	0.100000
0.454545,	0.100000
0.484848,	0.100000
0.515152,	0.100000
0.545455,	0.100000
0.575758,	0.100000
0.606061,	0.100000
0.636364,	0.100000
0.666667,	0.100000
0.696970,	0.100000
0.727273,	0.100000
0.757576,	0.100000
0.787879,	0.100000
0.818182,	0.100000
0.848485,	0.100000
0.878788,	0.100000
0.909091,	0.100000
0.939394,	0.100000
0.969697,	0.100000
1.000000,	0.100000
1.030303,	0.106818
1.060606,	0.113636
1.090909,	0.120455
1.121212,	0.127273
1.151515,	0.134091
1.181818,	0.140909
1.212121,	0.147727
1.242424,	0.154545
1.272727,	0.161364
1.303030,	0.168182
1.333333,	0.175000
1.363636,	0.181818
1.393939,	0.188636
1.424242,	0.195455
1.454545,	0.202273
1.484848,	0.209091
1.515152,	0.215909
1.545455,	0.222727
1.575758,	0.229545
1.606061,	0.236364
1.636364,	0.243182
1.666667,	0.250000
1.696970,	0.256818
1.727273,	0.263636
1.757576,	0.270455
1.787879,	0.277273
1.818182,	0.284091
1.848485,	0.290909
1.878788,	0.297727
1.909091,	0.304545
1.939394,	0.311364
1.969697,	0.318182
2.000000,	0.325000
2.030303,	0.325000
2.060606,	0.325000
2.090909,	0.325000
2.121212,	0.325000
2.151515,	0.325000
2.181818,	0.325000
2.212121,	0.325000
2.242424,	0.325000
2.272727,	0.325000
2.303030,	0.325000
2.333333,	0.325000
2.363636,	0.325000
2.393939,	0.325000
2.424242,	0.325000
2.454545,	0.325000
2.484848,	0.325000
2.515152,	0.325000
2.545455,	0.325000
2.575758,	0.325000
2.606061,	0.325000
2.636364,	0.325000
2.666667,	0.325000
2.696970,	0.325000
2.727273,	0.325000
2.757576,	0.325000
2.787879,	0.325000
2.818182,	0.325000
2.848485,	0.325000
2.878788,	0.325000
2.909091,	0.325000
2.939394,	0.325000
2.969697,	0.325000
3.000000,	0.325000
0.000000,	0.110000
0.030303,	0.110000
0.060606,	0.110000
0.090909,	0.110000
0.121212,	0.110000
0.151515,	0.110000
0.181818,	0.110000
0.212121,	0.110000
0.242424,	0.110000
0.272727,	0.110000
0.303030,	0.110000
0.333333,	0.110000
0.363636,	0.110000
0.393939,	0.110000
0.424242,	0.110000
0.454545,	0.110000
0.484848,	0.110000
0.515152,	0.110000
0.545455,	0.110000
0.575758,	0.110000
0.606061,	0.110000
0.636364,	0.110000
0.666667,	0.110000
0.696970,	0.110000
0.727273,	0.110000
0.757576,	0.110000
0.787879,	0.110000
0.818182,	0.110000
0.848485,	0.110000
0.878788,	0.110000
0.909091,	0.110000
0.939394,	0.110000
0.969697,	0.110000
1.000000,	0.110000
1.030303,	0.116742
1.060606,	0.123485
1.090909,	0.130227
1.121212,	0.136970
1.151515,	0.143712
1.181818,	0.150455
1.212121,	0.157197
1.242424,	0.163939
1.272727,	0.170682
1.303030,	0.177424
1.333333,	0.184167
1.363636,	0.190909
1.393939,	0.197652
1.424242,	0.204394
1.454545,	0.211136
1.484848,	0.217879
1.515152,	0.224621
1.545455,	0.231364
1.575758,	0.238106
1.606061,	0.244848
1.636364,	0.251591
1.666667,	0.258333
1.696970,	0.265076
1.727273,	0.271818
1.757576,	0.278561
1.787879,	0.285303
1.818182,	0.292045
1.848485,	0.298788
1.878788,	0.305530
1.909091,	0.312273
1.939394,	0.319015
1.969697,	0.325758
2.000000,	0.332500
2.030303,	0.332500
2.060606,	0.332500
2.090909,	0.332500
2.121212,	0.332500
2.151515,	0.332500
2.181818,	0.332500
2.212121,	0.332500
2.242424,	0.332500
2.272727,	0.332500
2.303030,	0.332500
2.333333,	0.332500
2.363636,	0.332500
2.393939,	0.332500
2.424242,	0.332500
2.454545,	0.332500
2.484848,	0.332500
2.515152,	0.332500
2.545455,	0.332500
2.575758,	0.332500
2.606061,	0.332500
2.636364,	0.332500
2.666667,	0.332500
2.696970,	0.332500
2.727273,	0.332500
2.757576,	0.332500
2.787879,	0.332500
2.818182,	0.332500
2.848485,	0.332500
2.878788,	0.332500
2.909091,	0.332500
2.939394,	0.332500
2.969697,	0.332500
3.000000,	0.332500
0.000000,	0.120000
0.030303,	0.120000
0.060606,	0.120000
0.090909,	0.120000
0.121212,	0.120000
0.151515,	0.120000
0.181818,	0.120000
0.212121,	0.120000
0.242424,	0.120000
0.272727,	0.120000
0.303030,	0.120000
0.333333,	0.120000
0.363636,	0.120000
0.393939,	0.120000
0.424242,	0.120000
0.454545,	0.120000
0.484848,	0.120000
0.515152,	0.120000
0.545455,	0.120000
0.575758,	0.120000
0.606061,	0.120000
0.636364,	0.120000
0.666667,	0.120000
0.696970,	0.120000
0.727273,	0.120000
0.757576,	0.120000
0.787879,	0.120000
0.818182,	0.120000
0.848485,	0.120000
0.878788,	0.120000
0.909091,	0.120000
0.939394,	0.120000
0.969697,	0.120000
1.000000,	0.120000
1.030303,	0.126667
1.060606,	0.133333
1.090909,	0.140000
1.121212,	0.146667
1.151515,	0.153333
1.181818,	0.160000
1.212121,	0.166667
1.242424,	0.173333
1.272727,	0.180000
1.303030,	0.186667
1.333333,	0.193333
1.363636,	0.200000
1.393939,	0.206667
1.424242,	0.213333
1.454545,	0.220000
1.484848,	0.226667
1.515152,	0.233333
1.545455,	0.240000
1.575758,	0.246667
1.606061,	0.253333
1.636364,	0.260000
1.666667,	0.266667
1.696970,	0.273333
1.727273,	0.280000
1.757576,	0.286667
1.787879,	0.293333
1.818182,	0.300000
1.848485,	0.306667
1.878788,	0.313333
1.909091,	0.320000
1.939394,	0.326667
1.969697,	0.333333
2.000000,	0.340000
2.030303,	0.340000
2.060606,	0.340000
2.090909,	0.340000
2.121212,	0.340000
2.151515,	0.340000
2.181818,	0.340000
2.212121,	0.340000
2.242424,	0.340000
2.272727,	0.340000
2.303030,	0.340000
2.333333,	0.340000
2.363636,	0.340000
2.393939,	0.340000
2.424242,	0.340000
2.454545,	0.340000
2.484848,	0.340000
2.515152,	0.340000
2.545455,	0.340000
2.575758,	0.340000
2.606061,	0.340000
2.636364,	0.340000
2.666667,	0.340000
2.696970,	0.340000
2.727273,	0.340000
2.757576,	0.340000
2.787879,	0.340000
2.818182,	0.340000
2.848485,	0.340000
2.878788,	0.340000
2.909091,	0.340000
2.939394,	0.340000
2.969697,	0.340000
3.000000,	0.340000
0.000000,	0.130000
0.030303,	0.130000
0.060606,	0.130000
0.090909,	0.130000
0.121212,	0.130000
0.151515,	0.130000
0.181818,	0.130000
0.212121,	0.130000
0.242424,	0.130000
0.272727,	0.130000
0.303030,	0.130000
0.333333,	0.130000
0.363636,	0.130000
0.393939,	0.130000
0.424242,	0.130000
0.454545,	0.130000
0.484848,	0.130000
0.515152,	0.130000
0.545455,	0.130000
0.575758,	0.130000
0.606061,	0.130000
0.636364,	0.130000
0.666667,	0.130000
0.696970,	0.130000
0.727273,	0.130000
0.757576,	0.130000
0.787879,	0.130000
0.818182,	0.130000
0.848485,	0.130000
0.878788,	0.130000
0.909091,	0.130000
0.939394,	0.130000
0.969697,	0.130000
1.000000,	0.130000
1.030303,	0.136591
1.060606,	0.143182
1.090909,	0.149773
1.121212,	0.156364
1.151515,	0.162955
1.181818,	0.169545
1.212121,	0.176136
1.242424,	0.182727
1.272727,	0.189318
1.303030,	0.195909
1.333333,	0.202500
1.363636,	0.209091
1.393939,	0.215682
1.424242,	0.222273
1.454545,	0.228864
1.484848,	0.235455
1.515152,	0.242045
1.545455,	0.248636
1.575758,	0.255227
1.606061,	0.261818
1.636364,	0.268409
1.666667,	0.275000
1.696970,	0.281591
1.727273,	0.288182
1.757576,	0.294773
1.787879,	0.301364
1.818182,	0.307955
1.848485,	0.314545
1.878788,	0.321136
1.909091,	0.327727
1.939394,	0.334318
1.969697,	0.340909
2.000000,	0.347500
2.030303,	0.347500
2.060606,	0.347500
2.090909,	0.347500
2.121212,	0.347500
2.151515,	0.347500
2.181818,	0.347500
2.212121,	0.347500
2.242424,	0.347500
2.272727,	0.347500
2.303030,	0.347500
2.333333,	0.347500
2.363636,	0.347500
2.393939,	0.347500
2.424242,	0.347500
2.454545,	0.347500
2.484848,	0.347500
2.515152,	0.347500
2.545455,	0.347500
2.575758,	0.347500
2.606061,	0.347500
2.636364,	0.347500
2.666667,	0.347500
2.696970,	0.347500
2.727273,	0.347500
2.757576,	0.347500
2.787879,	0.347500
2.818182,	0.347500
2.848485,	0.347500
2.878788,	0.347500
2.909091,	0.347500
2.939394,	0.347500
2.969697,	0.347500
3.000000,	0.347500
0.000000,	0.140000
0.030303,	0.140000
0.060606,	0.140000
0.090909,	0.140000
0.121212,	0.140000
0.151515,	0.140000
0.181818,	0.140000
0.212121,	0.140000
0.242424,	0.140000
0.272727,	0.140000
0.303030,	0.140000
0.333333,	0.140000
0.363636,	0.140000
0.393939,	0.140000
0.424242,	0.140000
0.454545,	0.140000
0.484848,	0.140000
0.515152,	0.140000
0.545455,	0.140000
0.575758,	0.140000
0.606061,	0.140000
0.636364,	0.140000
0.666667,	0.140000
0.696970,	0.140000
0.727273,	0.140000
0.757576,	0.140000
0.787879,	0.140000
0.818182,	0.140000
0.848485,	0.140000
0.878788,	0.140000
0.909091,	0.140000
0.939394,	0.140000
0.969697,	0.140000
1.000000,	0.140000
1.030303,	0.146515
1.060606,	0.153030
1.090909,	0.159545
1.121212,	0.166061
1.151515,	0.172576
1.181818,	0.179091
1.212121,	0.185606
1.242424,	0.192121
1.272727,	0.198636
1.303030,	0.205152
1.333333,	0.211667
1.363636,	0.218182
1.393939,	0.224697
1.424242,	0.231212
1.454545,	0.237727
1.484848,	0.244242
1.515152,	0.250758
1.545455,	0.257273
1.575758,	0.263788
1.606061,	0.270303
1.636364,	0.276818
1.666667,	0.283333
1.696970,	0.289848
1.727273,	0.296364
1.757576,	0.302879
1.787879,	0.309394
1.818182,	0.315909
1.848485,	0.322424
1.878788,	0.328939
1.909091,	0.335455
1.939394,	0.341970
1.969697,	0.348485
2.000000,	0.355000
2.030303,	0.355000
2.060606,	0.355000
2.090909,	0.355000
2.121212,	0.355000
2.151515,	0.355000
2.181818,	0.355000
2.212121,	0.355000
2.242424,	0.355000
2.272727,	0.355000
2.303030,	0.355000
2.333333,	0.355000
2.363636,	0.355000
2.393939,	0.355000
2.424242,	0.355000
2.454545,	0.355000
2.484848,	0.355000
2.515152,	0.355000
2.545455,	0.355000
2.575758,	0.355000
2.606061,	0.355000
2.636364,	0.355000
2.666667,	0.355000
2.696970,	0.355000
2.727273,	0.355000
2.757576,	0.355000
2.787879,	0.355000
2.818182,	0.355000
2.848485,	0.355000
2.878788,	0.355000
2.909091,	0.355000
2.939394,	0.355000
2.969697,	0.355000
3.000000,	0.355000
0.000000,	0.150000
0.030303,	0.150000
0.060606,	0.150000
0.090909,	0.150000
0.121212,	0.150000
0.151515,	0.150000
0.181818,	0.150000
0.212121,	0.150000
0.242424,	0.150000
0.272727,	0.150000
0.303030,	0.150000
0.333333,	0.150000
0.363636,	0.150000
0.393939,	0.150000
0.424242,	0.150000
0.454545,	0.150000
0.484848,	0.150000
0.515152,	0.150000
0.545455,	0.150000
0.575758,	0.150000
0.606061,	0.150000
0.636364,	0.150000
0.666667,	0.150000
0.696970,	0.150000
0.727273,	0.150000
0.757576,	0.150000
0.787879,	0.150000
0.818182,	0.150000
0.848485,	0.150000
0.878788,	0.150000
0.909091,	0.150000
0.939394,	0.150000
0.969697,	0.150000
1.000000,	0.150000
1.030303,	0.156439
1.060606,	0.162879
1.090909,	0.169318
1.121212,	0.175758
1.151515,	0.182197
1.181818,	0.188636
1.212121,	0.195076
1.242424,	0.201515
1.272727,	0.207955
1.303030,	0.214394
1.333333,	0.220833
1.363636,	0.227273
1.393939,	0.233712
1.424242,	0.240152
1.454545,	0.246591
1.484848,	0.253030
1.515152,	0.259470
1.545455,	0.265909
1.575758,	0.272348
1.606061,	0.278788
1.636364,	0.285227
1.666667,	0.291667
1.696970,	0.298106
1.727273,	0.304545
1.757576,	0.310985
1.787879,	0.317424
1.818182,	0.323864
1.848485,	0.330303
1.878788,	0.336742
1.909091,	0.343182
1.939394,	0.349621
1.969697,	0.356061
2.000000,	0.362500
2.030303,	0.362500
2.060606,	0.362500
2.090909,	0.362500
2.121212,	0.362500
2.151515,	0.362500
2.181818,	0.362500
2.212121,	0.362500