TITLE = "2DRampMesh"
VARIABLES = "X", "Y"
ZONE I=101, J=101, DATAPACKING=POINT
0.000000,	0.000000
0.030000,	0.000000
0.060000,	0.000000
0.090000,	0.000000
0.120000,	0.000000
0.150000,	0.000000
0.180000,	0.000000
0.210000,	0.000000
0.240000,	0.000000
0.270000,	0.000000
0.300000,	0.000000
0.330000,	0.000000
0.360000,	0.000000
0.390000,	0.000000
0.420000,	0.000000
0.450000,	0.000000
0.480000,	0.000000
0.510000,	0.000000
0.540000,	0.000000
0.570000,	0.000000
0.600000,	0.000000
0.630000,	0.000000
0.660000,	0.000000
0.690000,	0.000000
0.720000,	0.000000
0.750000,	0.000000
0.780000,	0.000000
0.810000,	0.000000
0.840000,	0.000000
0.870000,	0.000000
0.900000,	0.000000
0.930000,	0.000000
0.960000,	0.000000
0.990000,	0.000000
1.020000,	0.005000
1.050000,	0.012500
1.080000,	0.020000
1.110000,	0.027500
1.140000,	0.035000
1.170000,	0.042500
1.200000,	0.050000
1.230000,	0.057500
1.260000,	0.065000
1.290000,	0.072500
1.320000,	0.080000
1.350000,	0.087500
1.380000,	0.095000
1.410000,	0.102500
1.440000,	0.110000
1.470000,	0.117500
1.500000,	0.125000
1.530000,	0.132500
1.560000,	0.140000
1.590000,	0.147500
1.620000,	0.155000
1.650000,	0.162500
1.680000,	0.170000
1.710000,	0.177500
1.740000,	0.185000
1.770000,	0.192500
1.800000,	0.200000
1.830000,	0.207500
1.860000,	0.215000
1.890000,	0.222500
1.920000,	0.230000
1.950000,	0.237500
1.980000,	0.245000
2.010000,	0.250000
2.040000,	0.250000
2.070000,	0.250000
2.100000,	0.250000
2.130000,	0.250000
2.160000,	0.250000
2.190000,	0.250000
2.220000,	0.250000
2.250000,	0.250000
2.280000,	0.250000
2.310000,	0.250000
2.340000,	0.250000
2.370000,	0.250000
2.400000,	0.250000
2.430000,	0.250000
2.460000,	0.250000
2.490000,	0.250000
2.520000,	0.250000
2.550000,	0.250000
2.580000,	0.250000
2.610000,	0.250000
2.640000,	0.250000
2.670000,	0.250000
2.700000,	0.250000
2.730000,	0.250000
2.760000,	0.250000
2.790000,	0.250000
2.820000,	0.250000
2.850000,	0.250000
2.880000,	0.250000
2.910000,	0.250000
2.940000,	0.250000
2.970000,	0.250000
3.000000,	0.250000
0.000000,	0.009901
0.030000,	0.009901
0.060000,	0.009901
0.090000,	0.009901
0.120000,	0.009901
0.150000,	0.009901
0.180000,	0.009901
0.210000,	0.009901
0.240000,	0.009901
0.270000,	0.009901
0.300000,	0.009901
0.330000,	0.009901
0.360000,	0.009901
0.390000,	0.009901
0.420000,	0.009901
0.450000,	0.009901
0.480000,	0.009901
0.510000,	0.009901
0.540000,	0.009901
0.570000,	0.009901
0.600000,	0.009901
0.630000,	0.009901
0.660000,	0.009901
0.690000,	0.009901
0.720000,	0.009901
0.750000,	0.009901
0.780000,	0.009901
0.810000,	0.009901
0.840000,	0.009901
0.870000,	0.009901
0.900000,	0.009901
0.930000,	0.009901
0.960000,	0.009901
0.990000,	0.009901
1.020000,	0.014851
1.050000,	0.022277
1.080000,	0.029703
1.110000,	0.037129
1.140000,	0.044554
1.170000,	0.051980
1.200000,	0.059406
1.230000,	0.066832
1.260000,	0.074257
1.290000,	0.081683
1.320000,	0.089109
1.350000,	0.096535
1.380000,	0.103960
1.410000,	0.111386
1.440000,	0.118812
1.470000,	0.126238
1.500000,	0.133663
1.530000,	0.141089
1.560000,	0.148515
1.590000,	0.155941
1.620000,	0.163366
1.650000,	0.170792
1.680000,	0.178218
1.710000,	0.185644
1.740000,	0.193069
1.770000,	0.200495
1.800000,	0.207921
1.830000,	0.215347
1.860000,	0.222772
1.890000,	0.230198
1.920000,	0.237624
1.950000,	0.245050
1.980000,	0.252475
2.010000,	0.257426
2.040000,	0.257426
2.070000,	0.257426
2.100000,	0.257426
2.130000,	0.257426
2.160000,	0.257426
2.190000,	0.257426
2.220000,	0.257426
2.250000,	0.257426
2.280000,	0.257426
2.310000,	0.257426
2.340000,	0.257426
2.370000,	0.257426
2.400000,	0.257426
2.430000,	0.257426
2.460000,	0.257426
2.490000,	0.257426
2.520000,	0.257426
2.550000,	0.257426
2.580000,	0.257426
2.610000,	0.257426
2.640000,	0.257426
2.670000,	0.257426
2.700000,	0.257426
2.730000,	0.257426
2.760000,	0.257426
2.790000,	0.257426
2.820000,	0.257426
2.850000,	0.257426
2.880000,	0.257426
2.910000,	0.257426
2.940000,	0.257426
2.970000,	0.257426
3.000000,	0.257426
0.000000,	0.019802
0.030000,	0.019802
0.060000,	0.019802
0.090000,	0.019802
0.120000,	0.019802
0.150000,	0.019802
0.180000,	0.019802
0.210000,	0.019802
0.240000,	0.019802
0.270000,	0.019802
0.300000,	0.019802
0.330000,	0.019802
0.360000,	0.019802
0.390000,	0.019802
0.420000,	0.019802
0.450000,	0.019802
0.480000,	0.019802
0.510000,	0.019802
0.540000,	0.019802
0.570000,	0.019802
0.600000,	0.019802
0.630000,	0.019802
0.660000,	0.019802
0.690000,	0.019802
0.720000,	0.019802
0.750000,	0.019802
0.780000,	0.019802
0.810000,	0.019802
0.840000,	0.019802
0.870000,	0.019802
0.900000,	0.019802
0.930000,	0.019802
0.960000,	0.019802
0.990000,	0.019802
1.020000,	0.024703
1.050000,	0.032054
1.080000,	0.039406
1.110000,	0.046757
1.140000,	0.054109
1.170000,	0.061460
1.200000,	0.068812
1.230000,	0.076163
1.260000,	0.083515
1.290000,	0.090866
1.320000,	0.098218
1.350000,	0.105569
1.380000,	0.112921
1.410000,	0.120272
1.440000,	0.127624
1.470000,	0.134975
1.500000,	0.142327
1.530000,	0.149678
1.560000,	0.157030
1.590000,	0.164381
1.620000,	0.171733
1.650000,	0.179084
1.680000,	0.186436
1.710000,	0.193787
1.740000,	0.201139
1.770000,	0.208490
1.800000,	0.215842
1.830000,	0.223193
1.860000,	0.230545
1.890000,	0.237896
1.920000,	0.245248
1.950000,	0.252599
1.980000,	0.259950
2.010000,	0.264851
2.040000,	0.264851
2.070000,	0.264851
2.100000,	0.264851
2.130000,	0.264851
2.160000,	0.264851
2.190000,	0.264851
2.220000,	0.264851
2.250000,	0.264851
2.280000,	0.264851
2.310000,	0.264851
2.340000,	0.264851
2.370000,	0.264851
2.400000,	0.264851
2.430000,	0.264851
2.460000,	0.264851
2.490000,	0.264851
2.520000,	0.264851
2.550000,	0.264851
2.580000,	0.264851
2.610000,	0.264851
2.640000,	0.264851
2.670000,	0.264851
2.700000,	0.264851
2.730000,	0.264851
2.760000,	0.264851
2.790000,	0.264851
2.820000,	0.264851
2.850000,	0.264851
2.880000,	0.264851
2.910000,	0.264851
2.940000,	0.264851
2.970000,	0.264851
3.000000,	0.264851
0.000000,	0.029703
0.030000,	0.029703
0.060000,	0.029703
0.090000,	0.029703
0.120000,	0.029703
0.150000,	0.029703
0.180000,	0.029703
0.210000,	0.029703
0.240000,	0.029703
0.270000,	0.029703
0.300000,	0.029703
0.330000,	0.029703
0.360000,	0.029703
0.390000,	0.029703
0.420000,	0.029703
0.450000,	0.029703
0.480000,	0.029703
0.510000,	0.029703
0.540000,	0.029703
0.570000,	0.029703
0.600000,	0.029703
0.630000,	0.029703
0.660000,	0.029703
0.690000,	0.029703
0.720000,	0.029703
0.750000,	0.029703
0.780000,	0.029703
0.810000,	0.029703
0.840000,	0.029703
0.870000,	0.029703
0.900000,	0.029703
0.930000,	0.029703
0.960000,	0.029703
0.990000,	0.029703
1.020000,	0.034554
1.050000,	0.041832
1.080000,	0.049109
1.110000,	0.056386
1.140000,	0.063663
1.170000,	0.070941
1.200000,	0.078218
1.230000,	0.085495
1.260000,	0.092772
1.290000,	0.100050
1.320000,	0.107327
1.350000,	0.114604
1.380000,	0.121881
1.410000,	0.129158
1.440000,	0.136436
1.470000,	0.143713
1.500000,	0.150990
1.530000,	0.158267
1.560000,	0.165545
1.590000,	0.172822
1.620000,	0.180099
1.650000,	0.187376
1.680000,	0.194653
1.710000,	0.201931
1.740000,	0.209208
1.770000,	0.216485
1.800000,	0.223762
1.830000,	0.231040
1.860000,	0.238317
1.890000,	0.245594
1.920000,	0.252871
1.950000,	0.260149
1.980000,	0.267426
2.010000,	0.272277
2.040000,	0.272277
2.070000,	0.272277
2.100000,	0.272277
2.130000,	0.272277
2.160000,	0.272277
2.190000,	0.272277
2.220000,	0.272277
2.250000,	0.272277
2.280000,	0.272277
2.310000,	0.272277
2.340000,	0.272277
2.370000,	0.272277
2.400000,	0.272277
2.430000,	0.272277
2.460000,	0.272277
2.490000,	0.272277
2.520000,	0.272277
2.550000,	0.272277
2.580000,	0.272277
2.610000,	0.272277
2.640000,	0.272277
2.670000,	0.272277
2.700000,	0.272277
2.730000,	0.272277
2.760000,	0.272277
2.790000,	0.272277
2.820000,	0.272277
2.850000,	0.272277
2.880000,	0.272277
2.910000,	0.272277
2.940000,	0.272277
2.970000,	0.272277
3.000000,	0.272277
0.000000,	0.039604
0.030000,	0.039604
0.060000,	0.039604
0.090000,	0.039604
0.120000,	0.039604
0.150000,	0.039604
0.180000,	0.039604
0.210000,	0.039604
0.240000,	0.039604
0.270000,	0.039604
0.300000,	0.039604
0.330000,	0.039604
0.360000,	0.039604
0.390000,	0.039604
0.420000,	0.039604
0.450000,	0.039604
0.480000,	0.039604
0.510000,	0.039604
0.540000,	0.039604
0.570000,	0.039604
0.600000,	0.039604
0.630000,	0.039604
0.660000,	0.039604
0.690000,	0.039604
0.720000,	0.039604
0.750000,	0.039604
0.780000,	0.039604
0.810000,	0.039604
0.840000,	0.039604
0.870000,	0.039604
0.900000,	0.039604
0.930000,	0.039604
0.960000,	0.039604
0.990000,	0.039604
1.020000,	0.044406
1.050000,	0.051609
1.080000,	0.058812
1.110000,	0.066015
1.140000,	0.073218
1.170000,	0.080421
1.200000,	0.087624
1.230000,	0.094827
1.260000,	0.102030
1.290000,	0.109233
1.320000,	0.116436
1.350000,	0.123639
1.380000,	0.130842
1.410000,	0.138045
1.440000,	0.145248
1.470000,	0.152450
1.500000,	0.159653
1.530000,	0.166856
1.560000,	0.174059
1.590000,	0.181262
1.620000,	0.188465
1.650000,	0.195668
1.680000,	0.202871
1.710000,	0.210074
1.740000,	0.217277
1.770000,	0.224480
1.800000,	0.231683
1.830000,	0.238886
1.860000,	0.246089
1.890000,	0.253292
1.920000,	0.260495
1.950000,	0.267698
1.980000,	0.274901
2.010000,	0.279703
2.040000,	0.279703
2.070000,	0.279703
2.100000,	0.279703
2.130000,	0.279703
2.160000,	0.279703
2.190000,	0.279703
2.220000,	0.279703
2.250000,	0.279703
2.280000,	0.279703
2.310000,	0.279703
2.340000,	0.279703
2.370000,	0.279703
2.400000,	0.279703
2.430000,	0.279703
2.460000,	0.279703
2.490000,	0.279703
2.520000,	0.279703
2.550000,	0.279703
2.580000,	0.279703
2.610000,	0.279703
2.640000,	0.279703
2.670000,	0.279703
2.700000,	0.279703
2.730000,	0.279703
2.760000,	0.279703
2.790000,	0.279703
2.820000,	0.279703
2.850000,	0.279703
2.880000,	0.279703
2.910000,	0.279703
2.940000,	0.279703
2.970000,	0.279703
3.000000,	0.279703
0.000000,	0.049505
0.030000,	0.049505
0.060000,	0.049505
0.090000,	0.049505
0.120000,	0.049505
0.150000,	0.049505
0.180000,	0.049505
0.210000,	0.049505
0.240000,	0.049505
0.270000,	0.049505
0.300000,	0.049505
0.330000,	0.049505
0.360000,	0.049505
0.390000,	0.049505
0.420000,	0.049505
0.450000,	0.049505
0.480000,	0.049505
0.510000,	0.049505
0.540000,	0.049505
0.570000,	0.049505
0.600000,	0.049505
0.630000,	0.049505
0.660000,	0.049505
0.690000,	0.049505
0.720000,	0.049505
0.750000,	0.049505
0.780000,	0.049505
0.810000,	0.049505
0.840000,	0.049505
0.870000,	0.049505
0.900000,	0.049505
0.930000,	0.049505
0.960000,	0.049505
0.990000,	0.049505
1.020000,	0.054257
1.050000,	0.061386
1.080000,	0.068515
1.110000,	0.075644
1.140000,	0.082772
1.170000,	0.089901
1.200000,	0.097030
1.230000,	0.104158
1.260000,	0.111287
1.290000,	0.118416
1.320000,	0.125545
1.350000,	0.132673
1.380000,	0.139802
1.410000,	0.146931
1.440000,	0.154059
1.470000,	0.161188
1.500000,	0.168317
1.530000,	0.175446
1.560000,	0.182574
1.590000,	0.189703
1.620000,	0.196832
1.650000,	0.203960
1.680000,	0.211089
1.710000,	0.218218
1.740000,	0.225347
1.770000,	0.232475
1.800000,	0.239604
1.830000,	0.246733
1.860000,	0.253861
1.890000,	0.260990
1.920000,	0.268119
1.950000,	0.275248
1.980000,	0.282376
2.010000,	0.287129
2.040000,	0.287129
2.070000,	0.287129
2.100000,	0.287129
2.130000,	0.287129
2.160000,	0.287129
2.190000,	0.287129
2.220000,	0.287129
2.250000,	0.287129
2.280000,	0.287129
2.310000,	0.287129
2.340000,	0.287129
2.370000,	0.287129
2.400000,	0.287129
2.430000,	0.287129
2.460000,	0.287129
2.490000,	0.287129
2.520000,	0.287129
2.550000,	0.287129
2.580000,	0.287129
2.610000,	0.287129
2.640000,	0.287129
2.670000,	0.287129
2.700000,	0.287129
2.730000,	0.287129
2.760000,	0.287129
2.790000,	0.287129
2.820000,	0.287129
2.850000,	0.287129
2.880000,	0.287129
2.910000,	0.287129
2.940000,	0.287129
2.970000,	0.287129
3.000000,	0.287129
0.000000,	0.059406
0.030000,	0.059406
0.060000,	0.059406
0.090000,	0.059406
0.120000,	0.059406
0.150000,	0.059406
0.180000,	0.059406
0.210000,	0.059406
0.240000,	0.059406
0.270000,	0.059406
0.300000,	0.059406
0.330000,	0.059406
0.360000,	0.059406
0.390000,	0.059406
0.420000,	0.059406
0.450000,	0.059406
0.480000,	0.059406
0.510000,	0.059406
0.540000,	0.059406
0.570000,	0.059406
0.600000,	0.059406
0.630000,	0.059406
0.660000,	0.059406
0.690000,	0.059406
0.720000,	0.059406
0.750000,	0.059406
0.780000,	0.059406
0.810000,	0.059406
0.840000,	0.059406
0.870000,	0.059406
0.900000,	0.059406
0.930000,	0.059406
0.960000,	0.059406
0.990000,	0.059406
1.020000,	0.064109
1.050000,	0.071163
1.080000,	0.078218
1.110000,	0.085272
1.140000,	0.092327
1.170000,	0.099381
1.200000,	0.106436
1.230000,	0.113490
1.260000,	0.120545
1.290000,	0.127599
1.320000,	0.134653
1.350000,	0.141708
1.380000,	0.148762
1.410000,	0.155817
1.440000,	0.162871
1.470000,	0.169926
1.500000,	0.176980
1.530000,	0.184035
1.560000,	0.191089
1.590000,	0.198144
1.620000,	0.205198
1.650000,	0.212252
1.680000,	0.219307
1.710000,	0.226361
1.740000,	0.233416
1.770000,	0.240470
1.800000,	0.247525
1.830000,	0.254579
1.860000,	0.261634
1.890000,	0.268688
1.920000,	0.275743
1.950000,	0.282797
1.980000,	0.289851
2.010000,	0.294554
2.040000,	0.294554
2.070000,	0.294554
2.100000,	0.294554
2.130000,	0.294554
2.160000,	0.294554
2.190000,	0.294554
2.220000,	0.294554
2.250000,	0.294554
2.280000,	0.294554
2.310000,	0.294554
2.340000,	0.294554
2.370000,	0.294554
2.400000,	0.294554
2.430000,	0.294554
2.460000,	0.294554
2.490000,	0.294554
2.520000,	0.294554
2.550000,	0.294554
2.580000,	0.294554
2.610000,	0.294554
2.640000,	0.294554
2.670000,	0.294554
2.700000,	0.294554
2.730000,	0.294554
2.760000,	0.294554
2.790000,	0.294554
2.820000,	0.294554
2.850000,	0.294554
2.880000,	0.294554
2.910000,	0.294554
2.940000,	0.294554
2.970000,	0.294554
3.000000,	0.294554
0.000000,	0.069307
0.030000,	0.069307
0.060000,	0.069307
0.090000,	0.069307
0.120000,	0.069307
0.150000,	0.069307
0.180000,	0.069307
0.210000,	0.069307
0.240000,	0.069307
0.270000,	0.069307
0.300000,	0.069307
0.330000,	0.069307
0.360000,	0.069307
0.390000,	0.069307
0.420000,	0.069307
0.450000,	0.069307
0.480000,	0.069307
0.510000,	0.069307
0.540000,	0.069307
0.570000,	0.069307
0.600000,	0.069307
0.630000,	0.069307
0.660000,	0.069307
0.690000,	0.069307
0.720000,	0.069307
0.750000,	0.069307
0.780000,	0.069307
0.810000,	0.069307
0.840000,	0.069307
0.870000,	0.069307
0.900000,	0.069307
0.930000,	0.069307
0.960000,	0.069307
0.990000,	0.069307
1.020000,	0.073960
1.050000,	0.080941
1.080000,	0.087921
1.110000,	0.094901
1.140000,	0.101881
1.170000,	0.108861
1.200000,	0.115842
1.230000,	0.122822
1.260000,	0.129802
1.290000,	0.136782
1.320000,	0.143762
1.350000,	0.150743
1.380000,	0.157723
1.410000,	0.164703
1.440000,	0.171683
1.470000,	0.178663
1.500000,	0.185644
1.530000,	0.192624
1.560000,	0.199604
1.590000,	0.206584
1.620000,	0.213564
1.650000,	0.220545
1.680000,	0.227525
1.710000,	0.234505
1.740000,	0.241485
1.770000,	0.248465
1.800000,	0.255446
1.830000,	0.262426
1.860000,	0.269406
1.890000,	0.276386
1.920000,	0.283366
1.950000,	0.290347
1.980000,	0.297327
2.010000,	0.301980
2.040000,	0.301980
2.070000,	0.301980
2.100000,	0.301980
2.130000,	0.301980
2.160000,	0.301980
2.190000,	0.301980
2.220000,	0.301980
2.250000,	0.301980
2.280000,	0.301980
2.310000,	0.301980
2.340000,	0.301980
2.370000,	0.301980
2.400000,	0.301980
2.430000,	0.301980
2.460000,	0.301980
2.490000,	0.301980
2.520000,	0.301980
2.550000,	0.301980
2.580000,	0.301980
2.610000,	0.301980
2.640000,	0.301980
2.670000,	0.301980
2.700000,	0.301980
2.730000,	0.301980
2.760000,	0.301980
2.790000,	0.301980
2.820000,	0.301980
2.850000,	0.301980
2.880000,	0.301980
2.910000,	0.301980
2.940000,	0.301980
2.970000,	0.301980
3.000000,	0.301980
0.000000,	0.079208
0.030000,	0.079208
0.060000,	0.079208
0.090000,	0.079208
0.120000,	0.079208
0.150000,	0.079208
0.180000,	0.079208
0.210000,	0.079208
0.240000,	0.079208
0.270000,	0.079208
0.300000,	0.079208
0.330000,	0.079208
0.360000,	0.079208
0.390000,	0.079208
0.420000,	0.079208
0.450000,	0.079208
0.480000,	0.079208
0.510000,	0.079208
0.540000,	0.079208
0.570000,	0.079208
0.600000,	0.079208
0.630000,	0.079208
0.660000,	0.079208
0.690000,	0.079208
0.720000,	0.079208
0.750000,	0.079208
0.780000,	0.079208
0.810000,	0.079208
0.840000,	0.079208
0.870000,	0.079208
0.900000,	0.079208
0.930000,	0.079208
0.960000,	0.079208
0.990000,	0.079208
1.020000,	0.083812
1.050000,	0.090718
1.080000,	0.097624
1.110000,	0.104530
1.140000,	0.111436
1.170000,	0.118342
1.200000,	0.125248
1.230000,	0.132153
1.260000,	0.139059
1.290000,	0.145965
1.320000,	0.152871
1.350000,	0.159777
1.380000,	0.166683
1.410000,	0.173589
1.440000,	0.180495
1.470000,	0.187401
1.500000,	0.194307
1.530000,	0.201213
1.560000,	0.208119
1.590000,	0.215025
1.620000,	0.221931
1.650000,	0.228837
1.680000,	0.235743
1.710000,	0.242649
1.740000,	0.249554
1.770000,	0.256460
1.800000,	0.263366
1.830000,	0.270272
1.860000,	0.277178
1.890000,	0.284084
1.920000,	0.290990
1.950000,	0.297896
1.980000,	0.304802
2.010000,	0.309406
2.040000,	0.309406
2.070000,	0.309406
2.100000,	0.309406
2.130000,	0.309406
2.160000,	0.309406
2.190000,	0.309406
2.220000,	0.309406
2.250000,	0.309406
2.280000,	0.309406
2.310000,	0.309406
2.340000,	0.309406
2.370000,	0.309406
2.400000,	0.309406
2.430000,	0.309406
2.460000,	0.309406
2.490000,	0.309406
2.520000,	0.309406
2.550000,	0.309406
2.580000,	0.309406
2.610000,	0.309406
2.640000,	0.309406
2.670000,	0.309406
2.700000,	0.309406
2.730000,	0.309406
2.760000,	0.309406
2.790000,	0.309406
2.820000,	0.309406
2.850000,	0.309406
2.880000,	0.309406
2.910000,	0.309406
2.940000,	0.309406
2.970000,	0.309406
3.000000,	0.309406
0.000000,	0.089109
0.030000,	0.089109
0.060000,	0.089109
0.090000,	0.089109
0.120000,	0.089109
0.150000,	0.089109
0.180000,	0.089109
0.210000,	0.089109
0.240000,	0.089109
0.270000,	0.089109
0.300000,	0.089109
0.330000,	0.089109
0.360000,	0.089109
0.390000,	0.089109
0.420000,	0.089109
0.450000,	0.089109
0.480000,	0.089109
0.510000,	0.089109
0.540000,	0.089109
0.570000,	0.089109
0.600000,	0.089109
0.630000,	0.089109
0.660000,	0.089109
0.690000,	0.089109
0.720000,	0.089109
0.750000,	0.089109
0.780000,	0.089109
0.810000,	0.089109
0.840000,	0.089109
0.870000,	0.089109
0.900000,	0.089109
0.930000,	0.089109
0.960000,	0.089109
0.990000,	0.089109
1.020000,	0.093663
1.050000,	0.100495
1.080000,	0.107327
1.110000,	0.114158
1.140000,	0.120990
1.170000,	0.127822
1.200000,	0.134653
1.230000,	0.141485
1.260000,	0.148317
1.290000,	0.155149
1.320000,	0.161980
1.350000,	0.168812
1.380000,	0.175644
1.410000,	0.182475
1.440000,	0.189307
1.470000,	0.196139
1.500000,	0.202970
1.530000,	0.209802
1.560000,	0.216634
1.590000,	0.223465
1.620000,	0.230297
1.650000,	0.237129
1.680000,	0.243960
1.710000,	0.250792
1.740000,	0.257624
1.770000,	0.264455
1.800000,	0.271287
1.830000,	0.278119
1.860000,	0.284950
1.890000,	0.291782
1.920000,	0.298614
1.950000,	0.305446
1.980000,	0.312277
2.010000,	0.316832
2.040000,	0.316832
2.070000,	0.316832
2.100000,	0.316832
2.130000,	0.316832
2.160000,	0.316832
2.190000,	0.316832
2.220000,	0.316832
2.250000,	0.316832
2.280000,	0.316832
2.310000,	0.316832
2.340000,	0.316832
2.370000,	0.316832
2.400000,	0.316832
2.430000,	0.316832
2.460000,	0.316832
2.490000,	0.316832
2.520000,	0.316832
2.550000,	0.316832
2.580000,	0.316832
2.610000,	0.316832
2.640000,	0.316832
2.670000,	0.316832
2.700000,	0.316832
2.730000,	0.316832
2.760000,	0.316832
2.790000,	0.316832
2.820000,	0.316832
2.850000,	0.316832
2.880000,	0.316832
2.910000,	0.316832
2.940000,	0.316832
2.970000,	0.316832
3.000000,	0.316832
0.000000,	0.099010
0.030000,	0.099010
0.060000,	0.099010
0.090000,	0.099010
0.120000,	0.099010
0.150000,	0.099010
0.180000,	0.099010
0.210000,	0.099010
0.240000,	0.099010
0.270000,	0.099010
0.300000,	0.099010
0.330000,	0.099010
0.360000,	0.099010
0.390000,	0.099010
0.420000,	0.099010
0.450000,	0.099010
0.480000,	0.099010
0.510000,	0.099010
0.540000,	0.099010
0.570000,	0.099010
0.600000,	0.099010
0.630000,	0.099010
0.660000,	0.099010
0.690000,	0.099010
0.720000,	0.099010
0.750000,	0.099010
0.780000,	0.099010
0.810000,	0.099010
0.840000,	0.099010
0.870000,	0.099010
0.900000,	0.099010
0.930000,	0.099010
0.960000,	0.099010
0.990000,	0.099010
1.020000,	0.103515
1.050000,	0.110272
1.080000,	0.117030
1.110000,	0.123787
1.140000,	0.130545
1.170000,	0.137302
1.200000,	0.144059
1.230000,	0.150817
1.260000,	0.157574
1.290000,	0.164332
1.320000,	0.171089
1.350000,	0.177847
1.380000,	0.184604
1.410000,	0.191361
1.440000,	0.198119
1.470000,	0.204876
1.500000,	0.211634
1.530000,	0.218391
1.560000,	0.225149
1.590000,	0.231906
1.620000,	0.238663
1.650000,	0.245421
1.680000,	0.252178
1.710000,	0.258936
1.740000,	0.265693
1.770000,	0.272450
1.800000,	0.279208
1.830000,	0.285965
1.860000,	0.292723
1.890000,	0.299480
1.920000,	0.306238
1.950000,	0.312995
1.980000,	0.319752
2.010000,	0.324257
2.040000,	0.324257
2.070000,	0.324257
2.100000,	0.324257
2.130000,	0.324257
2.160000,	0.324257
2.190000,	0.324257
2.220000,	0.324257
2.250000,	0.324257
2.280000,	0.324257
2.310000,	0.324257
2.340000,	0.324257
2.370000,	0.324257
2.400000,	0.324257
2.430000,	0.324257
2.460000,	0.324257
2.490000,	0.324257
2.520000,	0.324257
2.550000,	0.324257
2.580000,	0.324257
2.610000,	0.324257
2.640000,	0.324257
2.670000,	0.324257
2.700000,	0.324257
2.730000,	0.324257
2.760000,	0.324257
2.790000,	0.324257
2.820000,	0.324257
2.850000,	0.324257
2.880000,	0.324257
2.910000,	0.324257
2.940000,	0.324257
2.970000,	0.324257
3.000000,	0.324257
0.000000,	0.108911
0.030000,	0.108911
0.060000,	0.108911
0.090000,	0.108911
0.120000,	0.108911
0.150000,	0.108911
0.180000,	0.108911
0.210000,	0.108911
0.240000,	0.108911
0.270000,	0.108911
0.300000,	0.108911
0.330000,	0.108911
0.360000,	0.108911
0.390000,	0.108911
0.420000,	0.108911
0.450000,	0.108911
0.480000,	0.108911
0.510000,	0.108911
0.540000,	0.108911
0.570000,	0.108911
0.600000,	0.108911
0.630000,	0.108911
0.660000,	0.108911
0.690000,	0.108911
0.720000,	0.108911
0.750000,	0.108911
0.780000,	0.108911
0.810000,	0.108911
0.840000,	0.108911
0.870000,	0.108911
0.900000,	0.108911
0.930000,	0.108911
0.960000,	0.108911
0.990000,	0.108911
1.020000,	0.113366
1.050000,	0.120050
1.080000,	0.126733
1.110000,	0.133416
1.140000,	0.140099
1.170000,	0.146782
1.200000,	0.153465
1.230000,	0.160149
1.260000,	0.166832
1.290000,	0.173515
1.320000,	0.180198
1.350000,	0.186881
1.380000,	0.193564
1.410000,	0.200248
1.440000,	0.206931
1.470000,	0.213614
1.500000,	0.220297
1.530000,	0.226980
1.560000,	0.233663
1.590000,	0.240347
1.620000,	0.247030
1.650000,	0.253713
1.680000,	0.260396
1.710000,	0.267079
1.740000,	0.273762
1.770000,	0.280446
1.800000,	0.287129
1.830000,	0.293812
1.860000,	0.300495
1.890000,	0.307178
1.920000,	0.313861
1.950000,	0.320545
1.980000,	0.327228
2.010000,	0.331683
2.040000,	0.331683
2.070000,	0.331683
2.100000,	0.331683
2.130000,	0.331683
2.160000,	0.331683
2.190000,	0.331683
2.220000,	0.331683
2.250000,	0.331683
2.280000,	0.331683
2.310000,	0.331683
2.340000,	0.331683
2.370000,	0.331683
2.400000,	0.331683
2.430000,	0.331683
2.460000,	0.331683
2.490000,	0.331683
2.520000,	0.331683
2.550000,	0.331683
2.580000,	0.331683
2.610000,	0.331683
2.640000,	0.331683
2.670000,	0.331683
2.700000,	0.331683
2.730000,	0.331683
2.760000,	0.331683
2.790000,	0.331683
2.820000,	0.331683
2.850000,	0.331683
2.880000,	0.331683
2.910000,	0.331683
2.940000,	0.331683
2.970000,	0.331683
3.000000,	0.331683
0.000000,	0.118812
0.030000,	0.118812
0.060000,	0.118812
0.090000,	0.118812
0.120000,	0.118812
0.150000,	0.118812
0.180000,	0.118812
0.210000,	0.118812
0.240000,	0.118812
0.270000,	0.118812
0.300000,	0.118812
0.330000,	0.118812
0.360000,	0.118812
0.390000,	0.118812
0.420000,	0.118812
0.450000,	0.118812
0.480000,	0.118812
0.510000,	0.118812
0.540000,	0.118812
0.570000,	0.118812
0.600000,	0.118812
0.630000,	0.118812
0.660000,	0.118812
0.690000,	0.118812
0.720000,	0.118812
0.750000,	0.118812
0.780000,	0.118812
0.810000,	0.118812
0.840000,	0.118812
0.870000,	0.118812
0.900000,	0.118812
0.930000,	0.118812
0.960000,	0.118812
0.990000,	0.118812
1.020000,	0.123218
1.050000,	0.129827
1.080000,	0.136436
1.110000,	0.143045
1.140000,	0.149653
1.170000,	0.156262
1.200000,	0.162871
1.230000,	0.169480
1.260000,	0.176089
1.290000,	0.182698
1.320000,	0.189307
1.350000,	0.195916
1.380000,	0.202525
1.410000,	0.209134
1.440000,	0.215743
1.470000,	0.222351
1.500000,	0.228960
1.530000,	0.235569
1.560000,	0.242178
1.590000,	0.248787
1.620000,	0.255396
1.650000,	0.262005
1.680000,	0.268614
1.710000,	0.275223
1.740000,	0.281832
1.770000,	0.288441
1.800000,	0.295050
1.830000,	0.301658
1.860000,	0.308267
1.890000,	0.314876
1.920000,	0.321485
1.950000,	0.328094
1.980000,	0.334703
2.010000,	0.339109
2.040000,	0.339109
2.070000,	0.339109
2.100000,	0.339109
2.130000,	0.339109
2.160000,	0.339109
2.190000,	0.339109
2.220000,	0.339109
2.250000,	0.339109
2.280000,	0.339109
2.310000,	0.339109
2.340000,	0.339109
2.370000,	0.339109
2.400000,	0.339109
2.430000,	0.339109
2.460000,	0.339109
2.490000,	0.339109
2.520000,	0.339109
2.550000,	0.339109
2.580000,	0.339109
2.610000,	0.339109
2.640000,	0.339109
2.670000,	0.339109
2.700000,	0.339109
2.730000,	0.339109
2.760000,	0.339109
2.790000,	0.339109
2.820000,	0.339109
2.850000,	0.339109
2.880000,	0.339109
2.910000,	0.339109
2.940000,	0.339109
2.970000,	0.339109
3.000000,	0.339109
0.000000,	0.128713
0.030000,	0.128713
0.060000,	0.128713
0.090000,	0.128713
0.120000,	0.128713
0.150000,	0.128713
0.180000,	0.128713
0.210000,	0.128713
0.240000,	0.128713
0.270000,	0.128713
0.300000,	0.128713
0.330000,	0.128713
0.360000,	0.128713
0.390000,	0.128713
0.420000,	0.128713
0.450000,	0.128713
0.480000,	0.128713
0.510000,	0.128713
0.540000,	0.128713
0.570000,	0.128713
0.600000,	0.128713
0.630000,	0.128713
0.660000,	0.128713
0.690000,	0.128713
0.720000,	0.128713
0.750000,	0.128713
0.780000,	0.128713
0.810000,	0.128713
0.840000,	0.128713
0.870000,	0.128713
0.900000,	0.128713
0.930000,	0.128713
0.960000,	0.128713
0.990000,	0.128713
1.020000,	0.133069
1.050000,	0.139604
1.080000,	0.146139
1.110000,	0.152673
1.140000,	0.159208
1.170000,	0.165743
1.200000,	0.172277
1.230000,	0.178812
1.260000,	0.185347
1.290000,	0.191881
1.320000,	0.198416
1.350000,	0.204950
1.380000,	0.211485
1.410000,	0.218020
1.440000,	0.224554
1.470000,	0.231089
1.500000,	0.237624
1.530000,	0.244158
1.560000,	0.250693
1.590000,	0.257228
1.620000,	0.263762
1.650000,	0.270297
1.680000,	0.276832
1.710000,	0.283366
1.740000,	0.289901
1.770000,	0.296436
1.800000,	0.302970
1.830000,	0.309505
1.860000,	0.316040
1.890000,	0.322574
1.920000,	0.329109
1.950000,	0.335644
1.980000,	0.342178
2.010000,	0.346535
2.040000,	0.346535
2.070000,	0.346535
2.100000,	0.346535
2.130000,	0.346535
2.160000,	0.346535
2.190000,	0.346535
2.220000,	0.346535
2.250000,	0.346535
2.280000,	0.346535
2.310000,	0.346535
2.340000,	0.346535
2.370000,	0.346535
2.400000,	0.346535
2.430000,	0.346535
2.460000,	0.346535
2.490000,	0.346535
2.520000,	0.346535
2.550000,	0.346535
2.580000,	0.346535
2.610000,	0.346535
2.640000,	0.346535
2.670000,	0.346535
2.700000,	0.346535
2.730000,	0.346535
2.760000,	0.346535
2.790000,	0.346535
2.820000,	0.346535
2.850000,	0.346535
2.880000,	0.346535
2.910000,	0.346535
2.940000,	0.346535
2.970000,	0.346535
3.000000,	0.346535
0.000000,	0.138614
0.030000,	0.138614
0.060000,	0.138614
0.090000,	0.138614
0.120000,	0.138614
0.150000,	0.138614
0.180000,	0.138614
0.210000,	0.138614
0.240000,	0.138614
0.270000,	0.138614
0.300000,	0.138614
0.330000,	0.138614
0.360000,	0.138614
0.390000,	0.138614
0.420000,	0.138614
0.450000,	0.138614
0.480000,	0.138614
0.510000,	0.138614
0.540000,	0.138614
0.570000,	0.138614
0.600000,	0.138614
0.630000,	0.138614
0.660000,	0.138614
0.690000,	0.138614
0.720000,	0.138614
0.750000,	0.138614
0.780000,	0.138614
0.810000,	0.138614
0.840000,	0.138614
0.870000,	0.138614
0.900000,	0.138614
0.930000,	0.138614
0.960000,	0.138614
0.990000,	0.138614
1.020000,	0.142921
1.050000,	0.149381
1.080000,	0.155842
1.110000,	0.162302
1.140000,	0.168762
1.170000,	0.175223
1.200000,	0.181683
1.230000,	0.188144
1.260000,	0.194604
1.290000,	0.201064
1.320000,	0.207525
1.350000,	0.213985
1.380000,	0.220446
1.410000,	0.226906
1.440000,	0.233366
1.470000,	0.239827
1.500000,	0.246287
1.530000,	0.252748
1.560000,	0.259208
1.590000,	0.265668
1.620000,	0.272129
1.650000,	0.278589
1.680000,	0.285050
1.710000,	0.291510
1.740000,	0.297970
1.770000,	0.304431
1.800000,	0.310891
1.830000,	0.317351
1.860000,	0.323812
1.890000,	0.330272
1.920000,	0.336733
1.950000,	0.343193
1.980000,	0.349653
2.010000,	0.353960
2.040000,	0.353960
2.070000,	0.353960
2.100000,	0.353960
2.130000,	0.353960
2.160000,	0.353960
2.190000,	0.353960
2.220000,	0.353960
2.250000,	0.353960
2.280000,	0.353960
2.310000,	0.353960
2.340000,	0.353960
2.370000,	0.353960
2.400000,	0.353960
2.430000,	0.353960
2.460000,	0.353960
2.490000,	0.353960
2.520000,	0.353960
2.550000,	0.353960
2.580000,	0.353960
2.610000,	0.353960
2.640000,	0.353960
2.670000,	0.353960
2.700000,	0.353960
2.730000,	0.353960
2.760000,	0.353960
2.790000,	0.353960
2.820000,	0.353960
2.850000,	0.353960
2.880000,	0.353960
2.910000,	0.353960
2.940000,	0.353960
2.970000,	0.353960
3.000000,	0.353960
0.000000,	0.148515
0.030000,	0.148515
0.060000,	0.148515
0.090000,	0.148515
0.120000,	0.148515
0.150000,	0.148515
0.180000,	0.148515
0.210000,	0.148515
0.240000,	0.148515
0.270000,	0.148515
0.300000,	0.148515
0.330000,	0.148515
0.360000,	0.148515
0.390000,	0.148515
0.420000,	0.148515
0.450000,	0.148515
0.480000,	0.148515
0.510000,	0.148515
0.540000,	0.148515
0.570000,	0.148515
0.600000,	0.148515
0.630000,	0.148515
0.660000,	0.148515
0.690000,	0.148515
0.720000,	0.148515
0.750000,	0.148515
0.780000,	0.148515
0.810000,	0.148515
0.840000,	0.148515
0.870000,	0.148515
0.900000,	0.148515
0.930000,	0.148515
0.960000,	0.148515
0.990000,	0.148515
1.020000,	0.152772
1.050000,	0.159158
1.080000,	0.165545
1.110000,	0.171931
1.140000,	0.178317
1.170000,	0.184703
1.200000,	0.191089
1.230000,	0.197475
1.260000,	0.203861
1.290000,	0.210248
1.320000,	0.216634
1.350000,	0.223020
1.380000,	0.229406
1.410000,	0.235792
1.440000,	0.242178
1.470000,	0.248564
1.500000,	0.254950
1.530000,	0.261337
1.560000,	0.267723
1.590000,	0.274109
1.620000,	0.280495
1.650000,	0.286881
1.680000,	0.293267
1.710000,	0.299653
1.740000,	0.306040