TITLE = "2DRampMesh"
VARIABLES = "X", "Y"
ZONE I=301, J=151, DATAPACKING=POINT
  0.0000000000000000,  0.0000000000000000
  0.0017839266666667,  0.0000000000000000
  0.0035678533333333,  0.0000000000000000
  0.0053517800000000,  0.0000000000000000
  0.0071357066666667,  0.0000000000000000
  0.0089196333333333,  0.0000000000000000
  0.0107035600000000,  0.0000000000000000
  0.0124874866666667,  0.0000000000000000
  0.0142714133333333,  0.0000000000000000
  0.0160553400000000,  0.0000000000000000
  0.0178392666666667,  0.0000000000000000
  0.0196231933333333,  0.0000000000000000
  0.0214071200000000,  0.0000000000000000
  0.0231910466666667,  0.0000000000000000
  0.0249749733333333,  0.0000000000000000
  0.0267589000000000,  0.0000000000000000
  0.0285428266666667,  0.0000000000000000
  0.0303267533333333,  0.0000000000000000
  0.0321106800000000,  0.0000000000000000
  0.0338946066666667,  0.0000000000000000
  0.0356785333333333,  0.0000000000000000
  0.0374624600000000,  0.0000000000000000
  0.0392463866666667,  0.0000000000000000
  0.0410303133333333,  0.0000000000000000
  0.0428142400000000,  0.0000000000000000
  0.0445981666666667,  0.0000000000000000
  0.0463820933333333,  0.0000000000000000
  0.0481660200000000,  0.0000000000000000
  0.0499499466666667,  0.0000000000000000
  0.0517338733333333,  0.0000000000000000
  0.0535178000000000,  0.0000000000000000
  0.0553017266666667,  0.0000000000000000
  0.0570856533333333,  0.0000000000000000
  0.0588695800000000,  0.0000000000000000
  0.0606535066666667,  0.0000000000000000
  0.0624374333333333,  0.0000000000000000
  0.0642213600000000,  0.0000000000000000
  0.0660052866666667,  0.0000000000000000
  0.0677892133333333,  0.0000000000000000
  0.0695731400000000,  0.0000000000000000
  0.0713570666666667,  0.0000000000000000
  0.0731409933333333,  0.0000000000000000
  0.0749249200000000,  0.0000000000000000
  0.0767088466666667,  0.0000000000000000
  0.0784927733333333,  0.0000000000000000
  0.0802767000000000,  0.0000000000000000
  0.0820606266666667,  0.0000000000000000
  0.0838445533333333,  0.0000000000000000
  0.0856284800000000,  0.0000000000000000
  0.0874124066666667,  0.0000000000000000
  0.0891963333333333,  0.0000000000000000
  0.0909802600000000,  0.0000000000000000
  0.0927641866666667,  0.0000000000000000
  0.0945481133333333,  0.0000000000000000
  0.0963320400000000,  0.0000000000000000
  0.0981159666666667,  0.0000000000000000
  0.0998998933333333,  0.0000000000000000
  0.1016838200000000,  0.0000000000000000
  0.1034677466666667,  0.0000000000000000
  0.1052516733333333,  0.0000000000000000
  0.1070356000000000,  0.0000000000000000
  0.1088195266666667,  0.0000000000000000
  0.1106034533333333,  0.0000000000000000
  0.1123873800000000,  0.0000000000000000
  0.1141713066666667,  0.0000000000000000
  0.1159552333333333,  0.0000000000000000
  0.1177391600000000,  0.0000000000000000
  0.1195230866666667,  0.0000000000000000
  0.1213070133333333,  0.0000000000000000
  0.1230909400000000,  0.0000000000000000
  0.1248748666666667,  0.0000000000000000
  0.1266587933333333,  0.0000000000000000
  0.1284427200000000,  0.0000000000000000
  0.1302266466666666,  0.0000000000000000
  0.1320105733333333,  0.0000000000000000
  0.1337945000000000,  0.0000000000000000
  0.1355784266666666,  0.0000000000000000
  0.1373623533333333,  0.0000000000000000
  0.1391462800000000,  0.0000000000000000
  0.1409302066666666,  0.0000000000000000
  0.1427141333333333,  0.0000000000000000
  0.1444980600000000,  0.0000000000000000
  0.1462819866666666,  0.0000000000000000
  0.1480659133333333,  0.0000000000000000
  0.1498498400000000,  0.0000000000000000
  0.1516337666666666,  0.0000000000000000
  0.1534176933333333,  0.0000000000000000
  0.1552016200000000,  0.0000000000000000
  0.1569855466666666,  0.0000000000000000
  0.1587694733333333,  0.0000000000000000
  0.1605534000000000,  0.0000000000000000
  0.1623373266666666,  0.0000000000000000
  0.1641212533333333,  0.0000000000000000
  0.1659051800000000,  0.0000000000000000
  0.1676891066666666,  0.0000000000000000
  0.1694730333333333,  0.0000000000000000
  0.1712569600000000,  0.0000000000000000
  0.1730408866666666,  0.0000000000000000
  0.1748248133333333,  0.0000000000000000
  0.1766087400000000,  0.0000000000000000
  0.1783926666666666,  0.0000000000000000
  0.1801765933333333,  0.0000000000000000
  0.1819605200000000,  0.0000000000000000
  0.1837444466666666,  0.0000000000000000
  0.1855283733333333,  0.0000000000000000
  0.1873123000000000,  0.0000000000000000
  0.1890962266666666,  0.0000000000000000
  0.1908801533333333,  0.0000000000000000
  0.1926640800000000,  0.0000000000000000
  0.1944480066666666,  0.0000000000000000
  0.1962319333333333,  0.0000000000000000
  0.1980158600000000,  0.0000000000000000
  0.1997997866666666,  0.0000000000000000
  0.2015837133333333,  0.0000000000000000
  0.2033676400000000,  0.0000000000000000
  0.2051515666666666,  0.0000000000000000
  0.2069354933333333,  0.0000000000000000
  0.2087194200000000,  0.0000000000000000
  0.2105033466666666,  0.0000000000000000
  0.2122872733333333,  0.0000000000000000
  0.2140712000000000,  0.0000000000000000
  0.2158551266666666,  0.0000000000000000
  0.2176390533333333,  0.0000000000000000
  0.2194229800000000,  0.0000000000000000
  0.2212069066666666,  0.0000000000000000
  0.2229908333333333,  0.0000000000000000
  0.2247747600000000,  0.0000000000000000
  0.2265586866666666,  0.0000000000000000
  0.2283426133333333,  0.0000000000000000
  0.2301265400000000,  0.0000000000000000
  0.2319104666666666,  0.0000000000000000
  0.2336943933333333,  0.0000000000000000
  0.2354783200000000,  0.0000000000000000
  0.2372622466666666,  0.0000000000000000
  0.2390461733333333,  0.0000000000000000
  0.2408301000000000,  0.0000000000000000
  0.2426140266666666,  0.0000000000000000
  0.2443979533333333,  0.0000000000000000
  0.2461818800000000,  0.0000000000000000
  0.2479658066666666,  0.0000000000000000
  0.2497497333333333,  0.0000000000000000
  0.2515336600000000,  0.0000000000000000
  0.2533175866666666,  0.0000000000000000
  0.2551015133333333,  0.0000000000000000
  0.2568854400000000,  0.0000000000000000
  0.2586693666666666,  0.0000000000000000
  0.2604532933333333,  0.0000000000000000
  0.2622372200000000,  0.0000000000000000
  0.2640211466666667,  0.0000000000000000
  0.2658050733333333,  0.0000000000000000
  0.2675890000000000,  0.0000000000000000
  0.2693729266666666,  0.0000000000000000
  0.2711568533333333,  0.0000000000000000
  0.2729407800000000,  0.0000000000000000
  0.2747247066666667,  0.0000000000000000
  0.2765086333333333,  0.0000000000000000
  0.2782925600000000,  0.0000000000000000
  0.2800764866666666,  0.0000000000000000
  0.2818604133333333,  0.0000000000000000
  0.2836443399999999,  0.0000000000000000
  0.2854282666666667,  0.0000000000000000
  0.2872121933333333,  0.0000000000000000
  0.2889961200000000,  0.0000000000000000
  0.2907800466666666,  0.0000000000000000
  0.2925639733333333,  0.0000000000000000
  0.2943478999999999,  0.0000000000000000
  0.2961318266666667,  0.0000000000000000
  0.2979157533333333,  0.0000000000000000
  0.2996996800000000,  0.0000000000000000
  0.3014836066666666,  0.0000000000000000
  0.3032675333333333,  0.0000000000000000
  0.3050514599999999,  0.0000000000000000
  0.3068353866666667,  0.0000000000000000
  0.3086193133333333,  0.0000000000000000
  0.3104032400000000,  0.0000000000000000
  0.3121871666666666,  0.0000000000000000
  0.3139710933333333,  0.0000000000000000
  0.3157550199999999,  0.0000000000000000
  0.3175389466666667,  0.0000000000000000
  0.3193228733333333,  0.0000000000000000
  0.3211068000000000,  0.0000000000000000
  0.3228907266666666,  0.0000000000000000
  0.3246746533333333,  0.0000000000000000
  0.3264585799999999,  0.0000000000000000
  0.3282425066666666,  0.0000000000000000
  0.3300264333333333,  0.0000000000000000
  0.3318103600000000,  0.0000000000000000
  0.3335942866666666,  0.0000000000000000
  0.3353782133333333,  0.0000000000000000
  0.3371621399999999,  0.0000000000000000
  0.3389460666666666,  0.0000000000000000
  0.3407299933333333,  0.0000000000000000
  0.3425139200000000,  0.0000000000000000
  0.3442978466666666,  0.0000000000000000
  0.3460817733333333,  0.0000000000000000
  0.3478656999999999,  0.0000000000000000
  0.3496496266666666,  0.0000000000000000
  0.3514335533333333,  0.0000000000000000
  0.3532174800000000,  0.0000000000000000
  0.3550014066666666,  0.0000000000000000
  0.3567853333333333,  0.0000000000000000
  0.3585692599999999,  0.0000000000000000
  0.3603531866666666,  0.0000000000000000
  0.3621371133333333,  0.0000000000000000
  0.3639210400000000,  0.0000000000000000
  0.3657049666666666,  0.0000000000000000
  0.3674888933333333,  0.0000000000000000
  0.3692728199999999,  0.0000000000000000
  0.3710567466666666,  0.0000000000000000
  0.3728406733333333,  0.0000000000000000
  0.3746246000000000,  0.0000000000000000
  0.3764085266666666,  0.0000000000000000
  0.3781924533333333,  0.0000000000000000
  0.3799763799999999,  0.0000000000000000
  0.3817603066666666,  0.0000000000000000
  0.3835442333333333,  0.0000000000000000
  0.3853281600000000,  0.0000000000000000
  0.3871120866666666,  0.0000000000000000
  0.3888960133333333,  0.0000000000000000
  0.3906799399999999,  0.0000000000000000
  0.3924638666666666,  0.0000000000000000
  0.3942477933333333,  0.0000000000000000
  0.3960317200000000,  0.0000000000000000
  0.3978156466666666,  0.0000000000000000
  0.3995995733333333,  0.0000000000000000
  0.4013834999999999,  0.0000000000000000
  0.4031674266666666,  0.0000000000000000
  0.4049513533333333,  0.0000000000000000
  0.4067352800000000,  0.0000000000000000
  0.4085192066666666,  0.0000000000000000
  0.4103031333333333,  0.0000000000000000
  0.4120870599999999,  0.0000000000000000
  0.4138709866666666,  0.0000000000000000
  0.4156549133333333,  0.0000000000000000
  0.4174388399999999,  0.0000000000000000
  0.4192227666666666,  0.0000000000000000
  0.4210066933333333,  0.0000000000000000
  0.4227906200000000,  0.0000000000000000
  0.4245745466666666,  0.0000000000000000
  0.4263584733333333,  0.0000000000000000
  0.4281423999999999,  0.0000000000000000
  0.4299263266666666,  0.0000000000000000
  0.4317102533333333,  0.0000000000000000
  0.4334941800000000,  0.0000000000000000
  0.4352781066666666,  0.0000000000000000
  0.4370620333333333,  0.0000000000000000
  0.4388459599999999,  0.0000000000000000
  0.4406298866666666,  0.0000000000000000
  0.4424138133333333,  0.0000000000000000
  0.4441977400000000,  0.0000000000000000
  0.4459816666666666,  0.0000000000000000
  0.4477655933333333,  0.0000000000000000
  0.4495495199999999,  0.0000000000000000
  0.4513334466666666,  0.0000000000000000
  0.4531173733333333,  0.0000000000000000
  0.4549013000000000,  0.0000000000000000
  0.4566852266666666,  0.0000000000000000
  0.4584691533333333,  0.0000000000000000
  0.4602530799999999,  0.0000000000000000
  0.4620370066666666,  0.0000000000000000
  0.4638209333333333,  0.0000000000000000
  0.4656048600000000,  0.0000000000000000
  0.4673887866666666,  0.0000000000000000
  0.4691727133333333,  0.0000000000000000
  0.4709566399999999,  0.0000000000000000
  0.4727405666666666,  0.0000000000000000
  0.4745244933333333,  0.0000000000000000
  0.4763084200000000,  0.0000000000000000
  0.4780923466666666,  0.0000000000000000
  0.4798762733333333,  0.0000000000000000
  0.4816601999999999,  0.0000000000000000
  0.4834441266666666,  0.0000000000000000
  0.4852280533333333,  0.0000000000000000
  0.4870119800000000,  0.0000000000000000
  0.4887959066666666,  0.0000000000000000
  0.4905798333333333,  0.0000000000000000
  0.4923637599999999,  0.0000000000000000
  0.4941476866666666,  0.0000000000000000
  0.4959316133333333,  0.0000000000000000
  0.4977155400000000,  0.0000000000000000
  0.4994994666666666,  0.0000000000000000
  0.5012833933333333,  0.0000000000000000
  0.5030673200000000,  0.0000000000000000
  0.5048512466666666,  0.0000000000000000
  0.5066351733333333,  0.0000000000000000
  0.5084190999999999,  0.0000000000000000
  0.5102030266666666,  0.0000000000000000
  0.5119869533333332,  0.0000000000000000
  0.5137708799999999,  0.0000000000000000
  0.5155548066666666,  0.0000000000000000
  0.5173387333333332,  0.0000000000000000
  0.5191226600000000,  0.0000000000000000
  0.5209065866666666,  0.0000000000000000
  0.5226905133333333,  0.0000000000000000
  0.5244744400000000,  0.0000000000000000
  0.5262583666666666,  0.0000000000000000
  0.5280422933333333,  0.0000000000000000
  0.5298262199999999,  0.0000000000000000
  0.5316101466666666,  0.0000000000000000
  0.5333940733333332,  0.0000000000000000
  0.5351779999999999,  0.0000000000000000
  0.0000000000000000,  0.0002826395160000
  0.0017839266666667,  0.0002826621348199
  0.0035678533333333,  0.0002829013462556
  0.0053517800000000,  0.0002838396837236
  0.0071357066666667,  0.0002852057376382
  0.0089196333333333,  0.0002866421203172
  0.0107035600000000,  0.0002881305457690
  0.0124874866666667,  0.0002896657382097
  0.0142714133333333,  0.0002912486372104
  0.0160553400000000,  0.0002928690399154
  0.0178392666666667,  0.0002945287519226
  0.0196231933333333,  0.0002962217748829
  0.0214071200000000,  0.0002979457407376
  0.0231910466666667,  0.0002997005282170
  0.0249749733333333,  0.0003014828515032
  0.0267589000000000,  0.0003032958644387
  0.0285428266666667,  0.0003051350436339
  0.0303267533333333,  0.0003070000132273
  0.0321106800000000,  0.0003088878763491
  0.0338946066666667,  0.0003107983018267
  0.0356785333333333,  0.0003127320041549
  0.0374624600000000,  0.0003146824537448
  0.0392463866666667,  0.0003166534149915
  0.0410303133333333,  0.0003186438232623
  0.0428142400000000,  0.0003206507583654
  0.0445981666666667,  0.0003226747617108
  0.0463820933333333,  0.0003247166026799
  0.0481660200000000,  0.0003267709760543
  0.0499499466666667,  0.0003288416564911
  0.0517338733333333,  0.0003309258594933
  0.0535178000000000,  0.0003330239336074
  0.0553017266666667,  0.0003351344381342
  0.0570856533333333,  0.0003372588744459
  0.0588695800000000,  0.0003393957337524
  0.0606535066666667,  0.0003415404982649
  0.0624374333333333,  0.0003436963215793
  0.0642213600000000,  0.0003458616144861
  0.0660052866666667,  0.0003480343094239
  0.0677892133333333,  0.0003502159599437
  0.0695731400000000,  0.0003524053789392
  0.0713570666666667,  0.0003546033646053
  0.0731409933333333,  0.0003568071729432
  0.0749249200000000,  0.0003590189579664
  0.0767088466666667,  0.0003612373521223
  0.0784927733333333,  0.0003634632658332
  0.0802767000000000,  0.0003656950827680
  0.0820606266666667,  0.0003679318341245
  0.0838445533333333,  0.0003701743919260
  0.0856284800000000,  0.0003724195350711
  0.0874124066666667,  0.0003746696794118
  0.0891963333333333,  0.0003769214247607
  0.0909802600000000,  0.0003791772025116
  0.0927641866666667,  0.0003814345876765
  0.0945481133333333,  0.0003836930622815
  0.0963320400000000,  0.0003859580339156
  0.0981159666666667,  0.0003882221516191
  0.0998998933333333,  0.0003904893922989
  0.1016838200000000,  0.0003927574294078
  0.1034677466666667,  0.0003950267365553
  0.1052516733333333,  0.0003972993877817
  0.1070356000000000,  0.0003995685667974
  0.1088195266666667,  0.0004018399798581
  0.1106034533333333,  0.0004041103063467
  0.1123873800000000,  0.0004063805404382
  0.1141713066666667,  0.0004086501603877
  0.1159552333333333,  0.0004109191494573
  0.1177391600000000,  0.0004131879920255
  0.1195230866666667,  0.0004154564246172
  0.1213070133333333,  0.0004177217100314
  0.1230909400000000,  0.0004199856707725
  0.1248748666666667,  0.0004222461420761
  0.1266587933333333,  0.0004245056413666
  0.1284427200000000,  0.0004267611996985
  0.1302266466666666,  0.0004290127507364
  0.1320105733333333,  0.0004312628439920
  0.1337945000000000,  0.0004335081271469
  0.1355784266666666,  0.0004357517034038
  0.1373623533333333,  0.0004379916676889
  0.1391462800000000,  0.0004402246895035
  0.1409302066666666,  0.0004424566223704
  0.1427141333333333,  0.0004446822787756
  0.1444980600000000,  0.0004469041971149
  0.1462819866666666,  0.0004491207107093
  0.1480659133333333,  0.0004513300983762
  0.1498498400000000,  0.0004535365910409
  0.1516337666666666,  0.0004557380854001
  0.1534176933333333,  0.0004579328731991
  0.1552016200000000,  0.0004601201956779
  0.1569855466666666,  0.0004623034970105
  0.1587694733333333,  0.0004644799420877
  0.1605534000000000,  0.0004666512809178
  0.1623373266666666,  0.0004688125790971
  0.1641212533333333,  0.0004709681412551
  0.1659051800000000,  0.0004731183457930
  0.1676891066666666,  0.0004752617472963
  0.1694730333333333,  0.0004773980676835
  0.1712569600000000,  0.0004795254558379
  0.1730408866666666,  0.0004816444062001
  0.1748248133333333,  0.0004837560455998
  0.1766087400000000,  0.0004858604367867
  0.1783926666666666,  0.0004879548830141
  0.1801765933333333,  0.0004900415717609
  0.1819605200000000,  0.0004921211075254
  0.1837444466666666,  0.0004941900064942
  0.1855283733333333,  0.0004962519801518
  0.1873123000000000,  0.0004983030048924
  0.1890962266666666,  0.0005003442948142
  0.1908801533333333,  0.0005023769478267
  0.1926640800000000,  0.0005043964480148
  0.1944480066666666,  0.0005064066207229
  0.1962319333333333,  0.0005084082295950
  0.1980158600000000,  0.0005103993472953
  0.1997997866666666,  0.0005123801789460
  0.2015837133333333,  0.0005143504587238
  0.2033676400000000,  0.0005163102273290
  0.2051515666666666,  0.0005182593041587
  0.2069354933333333,  0.0005201980644950
  0.2087194200000000,  0.0005221244972460
  0.2105033466666666,  0.0005240388833747
  0.2122872733333333,  0.0005259408540470
  0.2140712000000000,  0.0005278291209530
  0.2158551266666666,  0.0005297057884379
  0.2176390533333333,  0.0005315723166066
  0.2194229800000000,  0.0005334236742583
  0.2212069066666666,  0.0005352627928097
  0.2229908333333333,  0.0005370893096387
  0.2247747600000000,  0.0005389048016192
  0.2265586866666666,  0.0005407074509227
  0.2283426133333333,  0.0005424968187253
  0.2301265400000000,  0.0005442700372858
  0.2319104666666666,  0.0005460316552472
  0.2336943933333333,  0.0005477784316155
  0.2354783200000000,  0.0005495108482877
  0.2372622466666666,  0.0005512273950375
  0.2390461733333333,  0.0005529299586079
  0.2408301000000000,  0.0005546170791868
  0.2426140266666666,  0.0005562903372040
  0.2443979533333333,  0.0005579481985441
  0.2461818800000000,  0.0005595918573207
  0.2479658066666666,  0.0005612206563831
  0.2497497333333333,  0.0005628354784243
  0.2515336600000000,  0.0005644355995098
  0.2533175866666666,  0.0005660197980562
  0.2551015133333333,  0.0005675882192315
  0.2568854400000000,  0.0005691409636714
  0.2586693666666666,  0.0005706769572512
  0.2604532933333333,  0.0005721956628411
  0.2622372200000000,  0.0005736978380431
  0.2640211466666667,  0.0005751825873852
  0.2658050733333333,  0.0005766516322325
  0.2675890000000000,  0.0005781027716400
  0.2693729266666666,  0.0005795363127293
  0.2711568533333333,  0.0005809545786762
  0.2729407800000000,  0.0005823541636119
  0.2747247066666667,  0.0005837359857895
  0.2765086333333333,  0.0005851003310392
  0.2782925600000000,  0.0005864470345185
  0.2800764866666666,  0.0005877765431628
  0.2818604133333333,  0.0005890886630834
  0.2836443399999999,  0.0005903840791815
  0.2854282666666667,  0.0005916627639150
  0.2872121933333333,  0.0005929246688425
  0.2889961200000000,  0.0005941703399444
  0.2907800466666666,  0.0005953995543478
  0.2925639733333333,  0.0005966101900005
  0.2943478999999999,  0.0005978070703795
  0.2961318266666667,  0.0005989877460185
  0.2979157533333333,  0.0006001472838758
  0.2996996800000000,  0.0006012930732778
  0.3014836066666666,  0.0006024246997248
  0.3032675333333333,  0.0006035406718207
  0.3050514599999999,  0.0006046425173704
  0.3068353866666667,  0.0006057318262531
  0.3086193133333333,  0.0006068061471879
  0.3104032400000000,  0.0006078628115436
  0.3121871666666666,  0.0006089060001055
  0.3139710933333333,  0.0006099373975283
  0.3157550199999999,  0.0006109549296796
  0.3175389466666667,  0.0006119584906668
  0.3193228733333333,  0.0006129469843708
  0.3211068000000000,  0.0006139207016117
  0.3228907266666666,  0.0006148829988077
  0.3246746533333333,  0.0006158344823268
  0.3264585799999999,  0.0006167728146220
  0.3282425066666666,  0.0006176927940930
  0.3300264333333333,  0.0006186003231862
  0.3318103600000000,  0.0006194972583606
  0.3335942866666666,  0.0006203837711733
  0.3353782133333333,  0.0006212581416142
  0.3371621399999999,  0.0006221146985333
  0.3389460666666666,  0.0006229581236930
  0.3407299933333333,  0.0006237893884757
  0.3425139200000000,  0.0006246119699128
  0.3442978466666666,  0.0006254240629097
  0.3460817733333333,  0.0006262226513244
  0.3478656999999999,  0.0006270065684923
  0.3496496266666666,  0.0006277770045776
  0.3514335533333333,  0.0006285393563932
  0.3532174800000000,  0.0006292922653407
  0.3550014066666666,  0.0006300353415071
  0.3567853333333333,  0.0006307665993636
  0.3585692599999999,  0.0006314836564189
  0.3603531866666666,  0.0006321856150415
  0.3621371133333333,  0.0006328797701411
  0.3639210400000000,  0.0006335647146798
  0.3657049666666666,  0.0006342402018537
  0.3674888933333333,  0.0006349054783735
  0.3692728199999999,  0.0006355587518363
  0.3710567466666666,  0.0006361939974429
  0.3728406733333333,  0.0006368218772042
  0.3746246000000000,  0.0006374429596810
  0.3764085266666666,  0.0006380558930044
  0.3781924533333333,  0.0006386597943498
  0.3799763799999999,  0.0006392547749615
  0.3817603066666666,  0.0006398360582420
  0.3835442333333333,  0.0006404017804788
  0.3853281600000000,  0.0006409604350744
  0.3871120866666666,  0.0006415131843775
  0.3888960133333333,  0.0006420570258844
  0.3906799399999999,  0.0006425882086438
  0.3924638666666666,  0.0006431100914675
  0.3942477933333333,  0.0006436220668436
  0.3960317200000000,  0.0006441235561032
  0.3978156466666666,  0.0006446152174736
  0.3995995733333333,  0.0006450999257827
  0.4013834999999999,  0.0006455752023158
  0.4031674266666666,  0.0006460407908421
  0.4049513533333333,  0.0006464982127276
  0.4067352800000000,  0.0006469488930681
  0.4085192066666666,  0.0006473876705037
  0.4103031333333333,  0.0006478194411839
  0.4120870599999999,  0.0006482407591681
  0.4138709866666666,  0.0006486532445115
  0.4156549133333333,  0.0006490597271009
  0.4174388399999999,  0.0006494561418684
  0.4192227666666666,  0.0006498442839393
  0.4210066933333333,  0.0006502246762985
  0.4227906200000000,  0.0006505974044277
  0.4245745466666666,  0.0006509623911715
  0.4263584733333333,  0.0006513171170046
  0.4281423999999999,  0.0006516661713412
  0.4299263266666666,  0.0006520086174831
  0.4317102533333333,  0.0006523436327266
  0.4334941800000000,  0.0006526698251981
  0.4352781066666666,  0.0006529871907408
  0.4370620333333333,  0.0006532972755853
  0.4388459599999999,  0.0006536001003360
  0.4406298866666666,  0.0006538956696054
  0.4424138133333333,  0.0006541810989227
  0.4441977400000000,  0.0006544612585235
  0.4459816666666666,  0.0006547340660267
  0.4477655933333333,  0.0006549987062288
  0.4495495199999999,  0.0006552566101027
  0.4513334466666666,  0.0006555082715318
  0.4531173733333333,  0.0006557533622497
  0.4549013000000000,  0.0006559920199686
  0.4566852266666666,  0.0006562248290205
  0.4584691533333333,  0.0006564485580268
  0.4602530799999999,  0.0006566684567140
  0.4620370066666666,  0.0006568834388066
  0.4638209333333333,  0.0006570917914942
  0.4656048600000000,  0.0006572879135533
  0.4673887866666666,  0.0006574773675549
  0.4691727133333333,  0.0006576609757311
  0.4709566399999999,  0.0006578395092240
  0.4727405666666666,  0.0006580111342333
  0.4745244933333333,  0.0006581773079603
  0.4763084200000000,  0.0006583375096164
  0.4780923466666666,  0.0006584922118433
  0.4798762733333333,  0.0006586468620324
  0.4816601999999999,  0.0006587921353894
  0.4834441266666666,  0.0006589315770424
  0.4852280533333333,  0.0006590658325848
  0.4870119800000000,  0.0006591917993336
  0.4887959066666666,  0.0006593120163583
  0.4905798333333333,  0.0006594274140219
  0.4923637599999999,  0.0006595383576867
  0.4941476866666666,  0.0006596452195979
  0.4959316133333333,  0.0006597443363610
  0.4977155400000000,  0.0006598417518028
  0.4994994666666666,  0.0006599373544804
  0.5012833933333333,  0.0006600231024198
  0.5030673200000000,  0.0006601031280784
  0.5048512466666666,  0.0006601785124058
  0.5066351733333333,  0.0006602495412295
  0.5084190999999999,  0.0006603164788691
  0.5102030266666666,  0.0006603778380296
  0.5119869533333332,  0.0006604345991609
  0.5137708799999999,  0.0006604870317970
  0.5155548066666666,  0.0006605353099426
  0.5173387333333332,  0.0006605835955027
  0.5191226600000000,  0.0006606289382372
  0.5209065866666666,  0.0006606698046927
  0.5226905133333333,  0.0006607042483471
  0.5244744400000000,  0.0006607336817598
  0.5262583666666666,  0.0006607594735090
  0.5280422933333333,  0.0006607823379563
  0.5298262199999999,  0.0006608029494065
  0.5316101466666666,  0.0006608204182222
  0.5333940733333332,  0.0006608349022507
  0.5351779999999999,  0.0006608463291149
  0.0000000000000000,  0.0005652790320000
  0.0017839266666667,  0.0005653242696398
  0.0035678533333333,  0.0005658026925111
  0.0053517800000000,  0.0005676793674471
  0.0071357066666667,  0.0005704114752764
  0.0089196333333333,  0.0005732842406343
  0.0107035600000000,  0.0005762610915379
  0.0124874866666667,  0.0005793314764195
  0.0142714133333333,  0.0005824972744207
  0.0160553400000000,  0.0005857380798308
  0.0178392666666667,  0.0005890575038452
  0.0196231933333333,  0.0005924435497658
  0.0214071200000000,  0.0005958914814752
  0.0231910466666667,  0.0005994010564341
  0.0249749733333333,  0.0006029657030065
  0.0267589000000000,  0.0006065917288774
  0.0285428266666667,  0.0006102700872678
  0.0303267533333333,  0.0006140000264546
  0.0321106800000000,  0.0006177757526983
  0.0338946066666667,  0.0006215966036535
  0.0356785333333333,  0.0006254640083097
  0.0374624600000000,  0.0006293649074896
  0.0392463866666667,  0.0006333068299829
  0.0410303133333333,  0.0006372876465246
  0.0428142400000000,  0.0006413015167309
  0.0445981666666667,  0.0006453495234215
  0.0463820933333333,  0.0006494332053597
  0.0481660200000000,  0.0006535419521085
  0.0499499466666667,  0.0006576833129822
  0.0517338733333333,  0.0006618517189866
  0.0535178000000000,  0.0006660478672147
  0.0553017266666667,  0.0006702688762683
  0.0570856533333333,  0.0006745177488919
  0.0588695800000000,  0.0006787914675048
  0.0606535066666667,  0.0006830809965299
  0.0624374333333333,  0.0006873926431586
  0.0642213600000000,  0.0006917232289722
  0.0660052866666667,  0.0006960686188478
  0.0677892133333333,  0.0007004319198874
  0.0695731400000000,  0.0007048107578784
  0.0713570666666667,  0.0007092067292105
  0.0731409933333333,  0.0007136143458864
  0.0749249200000000,  0.0007180379159328
  0.0767088466666667,  0.0007224747042446
  0.0784927733333333,  0.0007269265316664
  0.0802767000000000,  0.0007313901655359
  0.0820606266666667,  0.0007358636682490
  0.0838445533333333,  0.0007403487838520
  0.0856284800000000,  0.0007448390701423
  0.0874124066666667,  0.0007493393588237
  0.0891963333333333,  0.0007538428495214
  0.0909802600000000,  0.0007583544050233
  0.0927641866666667,  0.0007628691753529
  0.0945481133333333,  0.0007673861245630
  0.0963320400000000,  0.0007719160678312
  0.0981159666666667,  0.0007764443032383
  0.0998998933333333,  0.0007809787845978
  0.1016838200000000,  0.0007855148588157
  0.1034677466666667,  0.0007900534731106
  0.1052516733333333,  0.0007945987755634
  0.1070356000000000,  0.0007991371335948
  0.1088195266666667,  0.0008036799597161
  0.1106034533333333,  0.0008082206126935
  0.1123873800000000,  0.0008127610808763
  0.1141713066666667,  0.0008173003207754
  0.1159552333333333,  0.0008218382989146
  0.1177391600000000,  0.0008263759840511
  0.1195230866666667,  0.0008309128492343
  0.1213070133333333,  0.0008354434200627
  0.1230909400000000,  0.0008399713415450
  0.1248748666666667,  0.0008444922841522
  0.1266587933333333,  0.0008490112827332
  0.1284427200000000,  0.0008535223993970
  0.1302266466666666,  0.0008580255014728
  0.1320105733333333,  0.0008625256879840
  0.1337945000000000,  0.0008670162542938
  0.1355784266666666,  0.0008715034068075
  0.1373623533333333,  0.0008759833353778
  0.1391462800000000,  0.0008804493790070
  0.1409302066666666,  0.0008849132447409
  0.1427141333333333,  0.0008893645575513
  0.1444980600000000,  0.0008938083942297
  0.1462819866666666,  0.0008982414214185
  0.1480659133333333,  0.0009026601967524
  0.1498498400000000,  0.0009070731820819
  0.1516337666666666,  0.0009114761708001
  0.1534176933333333,  0.0009158657463982
  0.1552016200000000,  0.0009202403913558
  0.1569855466666666,  0.0009246069940211
  0.1587694733333333,  0.0009289598841754
  0.1605534000000000,  0.0009333025618355
  0.1623373266666666,  0.0009376251581942
  0.1641212533333333,  0.0009419362825102
  0.1659051800000000,  0.0009462366915861
  0.1676891066666666,  0.0009505234945926
  0.1694730333333333,  0.0009547961353670
  0.1712569600000000,  0.0009590509116758
  0.1730408866666666,  0.0009632888124002
  0.1748248133333333,  0.0009675120911996
  0.1766087400000000,  0.0009717208735735
  0.1783926666666666,  0.0009759097660282
  0.1801765933333333,  0.0009800831435218
  0.1819605200000000,  0.0009842422150507
  0.1837444466666666,  0.0009883800129883
  0.1855283733333333,  0.0009925039603035
  0.1873123000000000,  0.0009966060097848
  0.1890962266666666,  0.0010006885896283
  0.1908801533333333,  0.0010047538956533
  0.1926640800000000,  0.0010087928960297
  0.1944480066666666,  0.0010128132414458