TITLE = "2DRampMesh"
VARIABLES = "X", "Y"
ZONE I=301, J=101, DATAPACKING=POINT
0.000000,	0.000000
0.016667,	0.000000
0.033333,	0.000000
0.050000,	0.000000
0.066667,	0.000000
0.083333,	0.000000
0.100000,	0.000000
0.116667,	0.000000
0.133333,	0.000000
0.150000,	0.000000
0.166667,	0.000000
0.183333,	0.000000
0.200000,	0.000000
0.216667,	0.000000
0.233333,	0.000000
0.250000,	0.000000
0.266667,	0.000000
0.283333,	0.000000
0.300000,	0.000000
0.316667,	0.000000
0.333333,	0.000000
0.350000,	0.000000
0.366667,	0.000000
0.383333,	0.000000
0.400000,	0.000000
0.416667,	0.000000
0.433333,	0.000000
0.450000,	0.000000
0.466667,	0.000000
0.483333,	0.000000
0.500000,	0.000000
0.516667,	0.000000
0.533333,	0.000000
0.550000,	0.000000
0.566667,	0.000000
0.583333,	0.000000
0.600000,	0.000000
0.616667,	0.000000
0.633333,	0.000000
0.650000,	0.000000
0.666667,	0.000000
0.683333,	0.000000
0.700000,	0.000000
0.716667,	0.000000
0.733333,	0.000000
0.750000,	0.000000
0.766667,	0.000000
0.783333,	0.000000
0.800000,	0.000000
0.816667,	0.000000
0.833333,	0.000000
0.850000,	0.000000
0.866667,	0.000000
0.883333,	0.000000
0.900000,	0.000000
0.916667,	0.000000
0.933333,	0.000000
0.950000,	0.000000
0.966667,	0.000000
0.983333,	0.000000
1.000000,	0.000000
1.016667,	0.013333
1.033333,	0.026667
1.050000,	0.040000
1.066667,	0.053333
1.083333,	0.066667
1.100000,	0.080000
1.116667,	0.093333
1.133333,	0.106667
1.150000,	0.120000
1.166667,	0.133333
1.183333,	0.146667
1.200000,	0.160000
1.216667,	0.173333
1.233333,	0.186667
1.250000,	0.200000
1.266667,	0.213333
1.283333,	0.226667
1.300000,	0.240000
1.316667,	0.253333
1.333333,	0.266667
1.350000,	0.280000
1.366667,	0.293333
1.383333,	0.306667
1.400000,	0.320000
1.416667,	0.333333
1.433333,	0.346667
1.450000,	0.360000
1.466667,	0.373333
1.483333,	0.386667
1.500000,	0.400000
1.516667,	0.413333
1.533333,	0.426667
1.550000,	0.440000
1.566667,	0.453333
1.583333,	0.466667
1.600000,	0.480000
1.616667,	0.493333
1.633333,	0.506667
1.650000,	0.520000
1.666667,	0.533333
1.683333,	0.546667
1.700000,	0.560000
1.716667,	0.573333
1.733333,	0.586667
1.750000,	0.600000
1.766667,	0.613333
1.783333,	0.626667
1.800000,	0.640000
1.816667,	0.653333
1.833333,	0.666667
1.850000,	0.680000
1.866667,	0.693333
1.883333,	0.706667
1.900000,	0.720000
1.916667,	0.733333
1.933333,	0.746667
1.950000,	0.760000
1.966667,	0.773333
1.983333,	0.786667
2.000000,	0.800000
2.016667,	0.797778
2.033333,	0.795556
2.050000,	0.793333
2.066667,	0.791111
2.083333,	0.788889
2.100000,	0.786667
2.116667,	0.784444
2.133333,	0.782222
2.150000,	0.780000
2.166667,	0.777778
2.183333,	0.775556
2.200000,	0.773333
2.216667,	0.771111
2.233333,	0.768889
2.250000,	0.766667
2.266667,	0.764444
2.283333,	0.762222
2.300000,	0.760000
2.316667,	0.757778
2.333333,	0.755556
2.350000,	0.753333
2.366667,	0.751111
2.383333,	0.748889
2.400000,	0.746667
2.416667,	0.744444
2.433333,	0.742222
2.450000,	0.740000
2.466667,	0.737778
2.483333,	0.735556
2.500000,	0.733333
2.516667,	0.731111
2.533333,	0.728889
2.550000,	0.726667
2.566667,	0.724444
2.583333,	0.722222
2.600000,	0.720000
2.616667,	0.717778
2.633333,	0.715556
2.650000,	0.713333
2.666667,	0.711111
2.683333,	0.708889
2.700000,	0.706667
2.716667,	0.704444
2.733333,	0.702222
2.750000,	0.700000
2.766667,	0.697778
2.783333,	0.695556
2.800000,	0.693333
2.816667,	0.691111
2.833333,	0.688889
2.850000,	0.686667
2.866667,	0.684444
2.883333,	0.682222
2.900000,	0.680000
2.916667,	0.677778
2.933333,	0.675556
2.950000,	0.673333
2.966667,	0.671111
2.983333,	0.668889
3.000000,	0.666667
3.016667,	0.664444
3.033333,	0.662222
3.050000,	0.660000
3.066667,	0.657778
3.083333,	0.655556
3.100000,	0.653333
3.116667,	0.651111
3.133333,	0.648889
3.150000,	0.646667
3.166667,	0.644444
3.183333,	0.642222
3.200000,	0.640000
3.216667,	0.637778
3.233333,	0.635556
3.250000,	0.633333
3.266667,	0.631111
3.283333,	0.628889
3.300000,	0.626667
3.316667,	0.624444
3.333333,	0.622222
3.350000,	0.620000
3.366667,	0.617778
3.383333,	0.615556
3.400000,	0.613333
3.416667,	0.611111
3.433333,	0.608889
3.450000,	0.606667
3.466667,	0.604444
3.483333,	0.602222
3.500000,	0.600000
3.516667,	0.597778
3.533333,	0.595556
3.550000,	0.593333
3.566667,	0.591111
3.583333,	0.588889
3.600000,	0.586667
3.616667,	0.584444
3.633333,	0.582222
3.650000,	0.580000
3.666667,	0.577778
3.683333,	0.575556
3.700000,	0.573333
3.716667,	0.571111
3.733333,	0.568889
3.750000,	0.566667
3.766667,	0.564444
3.783333,	0.562222
3.800000,	0.560000
3.816667,	0.557778
3.833333,	0.555556
3.850000,	0.553333
3.866667,	0.551111
3.883333,	0.548889
3.900000,	0.546667
3.916667,	0.544444
3.933333,	0.542222
3.950000,	0.540000
3.966667,	0.537778
3.983333,	0.535556
4.000000,	0.533333
4.016667,	0.531111
4.033333,	0.528889
4.050000,	0.526667
4.066667,	0.524444
4.083333,	0.522222
4.100000,	0.520000
4.116667,	0.517778
4.133333,	0.515556
4.150000,	0.513333
4.166667,	0.511111
4.183333,	0.508889
4.200000,	0.506667
4.216667,	0.504444
4.233333,	0.502222
4.250000,	0.500000
4.266667,	0.497778
4.283333,	0.495556
4.300000,	0.493333
4.316667,	0.491111
4.333333,	0.488889
4.350000,	0.486667
4.366667,	0.484444
4.383333,	0.482222
4.400000,	0.480000
4.416667,	0.477778
4.433333,	0.475556
4.450000,	0.473333
4.466667,	0.471111
4.483333,	0.468889
4.500000,	0.466667
4.516667,	0.464444
4.533333,	0.462222
4.550000,	0.460000
4.566667,	0.457778
4.583333,	0.455556
4.600000,	0.453333
4.616667,	0.451111
4.633333,	0.448889
4.650000,	0.446667
4.666667,	0.444444
4.683333,	0.442222
4.700000,	0.440000
4.716667,	0.437778
4.733333,	0.435556
4.750000,	0.433333
4.766667,	0.431111
4.783333,	0.428889
4.800000,	0.426667
4.816667,	0.424444
4.833333,	0.422222
4.850000,	0.420000
4.866667,	0.417778
4.883333,	0.415556
4.900000,	0.413333
4.916667,	0.411111
4.933333,	0.408889
4.950000,	0.406667
4.966667,	0.404444
4.983333,	0.402222
5.000000,	0.400000
0.000000,	0.019802
0.016667,	0.019802
0.033333,	0.019802
0.050000,	0.019802
0.066667,	0.019802
0.083333,	0.019802
0.100000,	0.019802
0.116667,	0.019802
0.133333,	0.019802
0.150000,	0.019802
0.166667,	0.019802
0.183333,	0.019802
0.200000,	0.019802
0.216667,	0.019802
0.233333,	0.019802
0.250000,	0.019802
0.266667,	0.019802
0.283333,	0.019802
0.300000,	0.019802
0.316667,	0.019802
0.333333,	0.019802
0.350000,	0.019802
0.366667,	0.019802
0.383333,	0.019802
0.400000,	0.019802
0.416667,	0.019802
0.433333,	0.019802
0.450000,	0.019802
0.466667,	0.019802
0.483333,	0.019802
0.500000,	0.019802
0.516667,	0.019802
0.533333,	0.019802
0.550000,	0.019802
0.566667,	0.019802
0.583333,	0.019802
0.600000,	0.019802
0.616667,	0.019802
0.633333,	0.019802
0.650000,	0.019802
0.666667,	0.019802
0.683333,	0.019802
0.700000,	0.019802
0.716667,	0.019802
0.733333,	0.019802
0.750000,	0.019802
0.766667,	0.019802
0.783333,	0.019802
0.800000,	0.019802
0.816667,	0.019802
0.833333,	0.019802
0.850000,	0.019802
0.866667,	0.019802
0.883333,	0.019802
0.900000,	0.019802
0.916667,	0.019802
0.933333,	0.019802
0.950000,	0.019802
0.966667,	0.019802
0.983333,	0.019802
1.000000,	0.019802
1.016667,	0.033003
1.033333,	0.046205
1.050000,	0.059406
1.066667,	0.072607
1.083333,	0.085809
1.100000,	0.099010
1.116667,	0.112211
1.133333,	0.125413
1.150000,	0.138614
1.166667,	0.151815
1.183333,	0.165017
1.200000,	0.178218
1.216667,	0.191419
1.233333,	0.204620
1.250000,	0.217822
1.266667,	0.231023
1.283333,	0.244224
1.300000,	0.257426
1.316667,	0.270627
1.333333,	0.283828
1.350000,	0.297030
1.366667,	0.310231
1.383333,	0.323432
1.400000,	0.336634
1.416667,	0.349835
1.433333,	0.363036
1.450000,	0.376238
1.466667,	0.389439
1.483333,	0.402640
1.500000,	0.415842
1.516667,	0.429043
1.533333,	0.442244
1.550000,	0.455446
1.566667,	0.468647
1.583333,	0.481848
1.600000,	0.495050
1.616667,	0.508251
1.633333,	0.521452
1.650000,	0.534653
1.666667,	0.547855
1.683333,	0.561056
1.700000,	0.574257
1.716667,	0.587459
1.733333,	0.600660
1.750000,	0.613861
1.766667,	0.627063
1.783333,	0.640264
1.800000,	0.653465
1.816667,	0.666667
1.833333,	0.679868
1.850000,	0.693069
1.866667,	0.706271
1.883333,	0.719472
1.900000,	0.732673
1.916667,	0.745875
1.933333,	0.759076
1.950000,	0.772277
1.966667,	0.785479
1.983333,	0.798680
2.000000,	0.811881
2.016667,	0.809681
2.033333,	0.807481
2.050000,	0.805281
2.066667,	0.803080
2.083333,	0.800880
2.100000,	0.798680
2.116667,	0.796480
2.133333,	0.794279
2.150000,	0.792079
2.166667,	0.789879
2.183333,	0.787679
2.200000,	0.785479
2.216667,	0.783278
2.233333,	0.781078
2.250000,	0.778878
2.266667,	0.776678
2.283333,	0.774477
2.300000,	0.772277
2.316667,	0.770077
2.333333,	0.767877
2.350000,	0.765677
2.366667,	0.763476
2.383333,	0.761276
2.400000,	0.759076
2.416667,	0.756876
2.433333,	0.754675
2.450000,	0.752475
2.466667,	0.750275
2.483333,	0.748075
2.500000,	0.745875
2.516667,	0.743674
2.533333,	0.741474
2.550000,	0.739274
2.566667,	0.737074
2.583333,	0.734873
2.600000,	0.732673
2.616667,	0.730473
2.633333,	0.728273
2.650000,	0.726073
2.666667,	0.723872
2.683333,	0.721672
2.700000,	0.719472
2.716667,	0.717272
2.733333,	0.715072
2.750000,	0.712871
2.766667,	0.710671
2.783333,	0.708471
2.800000,	0.706271
2.816667,	0.704070
2.833333,	0.701870
2.850000,	0.699670
2.866667,	0.697470
2.883333,	0.695270
2.900000,	0.693069
2.916667,	0.690869
2.933333,	0.688669
2.950000,	0.686469
2.966667,	0.684268
2.983333,	0.682068
3.000000,	0.679868
3.016667,	0.677668
3.033333,	0.675468
3.050000,	0.673267
3.066667,	0.671067
3.083333,	0.668867
3.100000,	0.666667
3.116667,	0.664466
3.133333,	0.662266
3.150000,	0.660066
3.166667,	0.657866
3.183333,	0.655666
3.200000,	0.653465
3.216667,	0.651265
3.233333,	0.649065
3.250000,	0.646865
3.266667,	0.644664
3.283333,	0.642464
3.300000,	0.640264
3.316667,	0.638064
3.333333,	0.635864
3.350000,	0.633663
3.366667,	0.631463
3.383333,	0.629263
3.400000,	0.627063
3.416667,	0.624862
3.433333,	0.622662
3.450000,	0.620462
3.466667,	0.618262
3.483333,	0.616062
3.500000,	0.613861
3.516667,	0.611661
3.533333,	0.609461
3.550000,	0.607261
3.566667,	0.605061
3.583333,	0.602860
3.600000,	0.600660
3.616667,	0.598460
3.633333,	0.596260
3.650000,	0.594059
3.666667,	0.591859
3.683333,	0.589659
3.700000,	0.587459
3.716667,	0.585259
3.733333,	0.583058
3.750000,	0.580858
3.766667,	0.578658
3.783333,	0.576458
3.800000,	0.574257
3.816667,	0.572057
3.833333,	0.569857
3.850000,	0.567657
3.866667,	0.565457
3.883333,	0.563256
3.900000,	0.561056
3.916667,	0.558856
3.933333,	0.556656
3.950000,	0.554455
3.966667,	0.552255
3.983333,	0.550055
4.000000,	0.547855
4.016667,	0.545655
4.033333,	0.543454
4.050000,	0.541254
4.066667,	0.539054
4.083333,	0.536854
4.100000,	0.534653
4.116667,	0.532453
4.133333,	0.530253
4.150000,	0.528053
4.166667,	0.525853
4.183333,	0.523652
4.200000,	0.521452
4.216667,	0.519252
4.233333,	0.517052
4.250000,	0.514851
4.266667,	0.512651
4.283333,	0.510451
4.300000,	0.508251
4.316667,	0.506051
4.333333,	0.503850
4.350000,	0.501650
4.366667,	0.499450
4.383333,	0.497250
4.400000,	0.495050
4.416667,	0.492849
4.433333,	0.490649
4.450000,	0.488449
4.466667,	0.486249
4.483333,	0.484048
4.500000,	0.481848
4.516667,	0.479648
4.533333,	0.477448
4.550000,	0.475248
4.566667,	0.473047
4.583333,	0.470847
4.600000,	0.468647
4.616667,	0.466447
4.633333,	0.464246
4.650000,	0.462046
4.666667,	0.459846
4.683333,	0.457646
4.700000,	0.455446
4.716667,	0.453245
4.733333,	0.451045
4.750000,	0.448845
4.766667,	0.446645
4.783333,	0.444444
4.800000,	0.442244
4.816667,	0.440044
4.833333,	0.437844
4.850000,	0.435644
4.866667,	0.433443
4.883333,	0.431243
4.900000,	0.429043
4.916667,	0.426843
4.933333,	0.424642
4.950000,	0.422442
4.966667,	0.420242
4.983333,	0.418042
5.000000,	0.415842
0.000000,	0.039604
0.016667,	0.039604
0.033333,	0.039604
0.050000,	0.039604
0.066667,	0.039604
0.083333,	0.039604
0.100000,	0.039604
0.116667,	0.039604
0.133333,	0.039604
0.150000,	0.039604
0.166667,	0.039604
0.183333,	0.039604
0.200000,	0.039604
0.216667,	0.039604
0.233333,	0.039604
0.250000,	0.039604
0.266667,	0.039604
0.283333,	0.039604
0.300000,	0.039604
0.316667,	0.039604
0.333333,	0.039604
0.350000,	0.039604
0.366667,	0.039604
0.383333,	0.039604
0.400000,	0.039604
0.416667,	0.039604
0.433333,	0.039604
0.450000,	0.039604
0.466667,	0.039604
0.483333,	0.039604
0.500000,	0.039604
0.516667,	0.039604
0.533333,	0.039604
0.550000,	0.039604
0.566667,	0.039604
0.583333,	0.039604
0.600000,	0.039604
0.616667,	0.039604
0.633333,	0.039604
0.650000,	0.039604
0.666667,	0.039604
0.683333,	0.039604
0.700000,	0.039604
0.716667,	0.039604
0.733333,	0.039604
0.750000,	0.039604
0.766667,	0.039604
0.783333,	0.039604
0.800000,	0.039604
0.816667,	0.039604
0.833333,	0.039604
0.850000,	0.039604
0.866667,	0.039604
0.883333,	0.039604
0.900000,	0.039604
0.916667,	0.039604
0.933333,	0.039604
0.950000,	0.039604
0.966667,	0.039604
0.983333,	0.039604
1.000000,	0.039604
1.016667,	0.052673
1.033333,	0.065743
1.050000,	0.078812
1.066667,	0.091881
1.083333,	0.104950
1.100000,	0.118020
1.116667,	0.131089
1.133333,	0.144158
1.150000,	0.157228
1.166667,	0.170297
1.183333,	0.183366
1.200000,	0.196436
1.216667,	0.209505
1.233333,	0.222574
1.250000,	0.235644
1.266667,	0.248713
1.283333,	0.261782
1.300000,	0.274851
1.316667,	0.287921
1.333333,	0.300990
1.350000,	0.314059
1.366667,	0.327129
1.383333,	0.340198
1.400000,	0.353267
1.416667,	0.366337
1.433333,	0.379406
1.450000,	0.392475
1.466667,	0.405545
1.483333,	0.418614
1.500000,	0.431683
1.516667,	0.444752
1.533333,	0.457822
1.550000,	0.470891
1.566667,	0.483960
1.583333,	0.497030
1.600000,	0.510099
1.616667,	0.523168
1.633333,	0.536238
1.650000,	0.549307
1.666667,	0.562376
1.683333,	0.575446
1.700000,	0.588515
1.716667,	0.601584
1.733333,	0.614653
1.750000,	0.627723
1.766667,	0.640792
1.783333,	0.653861
1.800000,	0.666931
1.816667,	0.680000
1.833333,	0.693069
1.850000,	0.706139
1.866667,	0.719208
1.883333,	0.732277
1.900000,	0.745347
1.916667,	0.758416
1.933333,	0.771485
1.950000,	0.784554
1.966667,	0.797624
1.983333,	0.810693
2.000000,	0.823762
2.016667,	0.821584
2.033333,	0.819406
2.050000,	0.817228
2.066667,	0.815050
2.083333,	0.812871
2.100000,	0.810693
2.116667,	0.808515
2.133333,	0.806337
2.150000,	0.804158
2.166667,	0.801980
2.183333,	0.799802
2.200000,	0.797624
2.216667,	0.795446
2.233333,	0.793267
2.250000,	0.791089
2.266667,	0.788911
2.283333,	0.786733
2.300000,	0.784554
2.316667,	0.782376
2.333333,	0.780198
2.350000,	0.778020
2.366667,	0.775842
2.383333,	0.773663
2.400000,	0.771485
2.416667,	0.769307
2.433333,	0.767129
2.450000,	0.764950
2.466667,	0.762772
2.483333,	0.760594
2.500000,	0.758416
2.516667,	0.756238
2.533333,	0.754059
2.550000,	0.751881
2.566667,	0.749703
2.583333,	0.747525
2.600000,	0.745347
2.616667,	0.743168
2.633333,	0.740990
2.650000,	0.738812
2.666667,	0.736634
2.683333,	0.734455
2.700000,	0.732277
2.716667,	0.730099
2.733333,	0.727921
2.750000,	0.725743
2.766667,	0.723564
2.783333,	0.721386
2.800000,	0.719208
2.816667,	0.717030
2.833333,	0.714851
2.850000,	0.712673
2.866667,	0.710495
2.883333,	0.708317
2.900000,	0.706139
2.916667,	0.703960
2.933333,	0.701782
2.950000,	0.699604
2.966667,	0.697426
2.983333,	0.695248
3.000000,	0.693069
3.016667,	0.690891
3.033333,	0.688713
3.050000,	0.686535
3.066667,	0.684356
3.083333,	0.682178
3.100000,	0.680000
3.116667,	0.677822
3.133333,	0.675644
3.150000,	0.673465
3.166667,	0.671287
3.183333,	0.669109
3.200000,	0.666931
3.216667,	0.664752
3.233333,	0.662574
3.250000,	0.660396
3.266667,	0.658218
3.283333,	0.656040
3.300000,	0.653861
3.316667,	0.651683
3.333333,	0.649505
3.350000,	0.647327
3.366667,	0.645149
3.383333,	0.642970
3.400000,	0.640792
3.416667,	0.638614
3.433333,	0.636436
3.450000,	0.634257
3.466667,	0.632079
3.483333,	0.629901
3.500000,	0.627723
3.516667,	0.625545
3.533333,	0.623366
3.550000,	0.621188
3.566667,	0.619010
3.583333,	0.616832
3.600000,	0.614653
3.616667,	0.612475
3.633333,	0.610297
3.650000,	0.608119
3.666667,	0.605941
3.683333,	0.603762
3.700000,	0.601584
3.716667,	0.599406
3.733333,	0.597228
3.750000,	0.595050
3.766667,	0.592871
3.783333,	0.590693
3.800000,	0.588515
3.816667,	0.586337
3.833333,	0.584158
3.850000,	0.581980
3.866667,	0.579802
3.883333,	0.577624
3.900000,	0.575446
3.916667,	0.573267
3.933333,	0.571089
3.950000,	0.568911
3.966667,	0.566733
3.983333,	0.564554
4.000000,	0.562376
4.016667,	0.560198
4.033333,	0.558020
4.050000,	0.555842
4.066667,	0.553663
4.083333,	0.551485
4.100000,	0.549307
4.116667,	0.547129
4.133333,	0.544950
4.150000,	0.542772
4.166667,	0.540594
4.183333,	0.538416
4.200000,	0.536238
4.216667,	0.534059
4.233333,	0.531881
4.250000,	0.529703
4.266667,	0.527525
4.283333,	0.525347
4.300000,	0.523168
4.316667,	0.520990
4.333333,	0.518812
4.350000,	0.516634
4.366667,	0.514455
4.383333,	0.512277
4.400000,	0.510099
4.416667,	0.507921
4.433333,	0.505743
4.450000,	0.503564
4.466667,	0.501386
4.483333,	0.499208
4.500000,	0.497030
4.516667,	0.494851
4.533333,	0.492673
4.550000,	0.490495
4.566667,	0.488317
4.583333,	0.486139
4.600000,	0.483960
4.616667,	0.481782
4.633333,	0.479604
4.650000,	0.477426
4.666667,	0.475248
4.683333,	0.473069
4.700000,	0.470891
4.716667,	0.468713
4.733333,	0.466535
4.750000,	0.464356
4.766667,	0.462178
4.783333,	0.460000
4.800000,	0.457822
4.816667,	0.455644
4.833333,	0.453465
4.850000,	0.451287
4.866667,	0.449109
4.883333,	0.446931
4.900000,	0.444752
4.916667,	0.442574
4.933333,	0.440396
4.950000,	0.438218
4.966667,	0.436040
4.983333,	0.433861
5.000000,	0.431683
0.000000,	0.059406
0.016667,	0.059406
0.033333,	0.059406
0.050000,	0.059406
0.066667,	0.059406
0.083333,	0.059406
0.100000,	0.059406
0.116667,	0.059406
0.133333,	0.059406
0.150000,	0.059406
0.166667,	0.059406
0.183333,	0.059406
0.200000,	0.059406
0.216667,	0.059406
0.233333,	0.059406
0.250000,	0.059406
0.266667,	0.059406
0.283333,	0.059406
0.300000,	0.059406
0.316667,	0.059406
0.333333,	0.059406
0.350000,	0.059406
0.366667,	0.059406
0.383333,	0.059406
0.400000,	0.059406
0.416667,	0.059406
0.433333,	0.059406
0.450000,	0.059406
0.466667,	0.059406
0.483333,	0.059406
0.500000,	0.059406
0.516667,	0.059406
0.533333,	0.059406
0.550000,	0.059406
0.566667,	0.059406
0.583333,	0.059406
0.600000,	0.059406
0.616667,	0.059406
0.633333,	0.059406
0.650000,	0.059406
0.666667,	0.059406
0.683333,	0.059406
0.700000,	0.059406
0.716667,	0.059406
0.733333,	0.059406
0.750000,	0.059406
0.766667,	0.059406
0.783333,	0.059406
0.800000,	0.059406
0.816667,	0.059406
0.833333,	0.059406
0.850000,	0.059406
0.866667,	0.059406
0.883333,	0.059406
0.900000,	0.059406
0.916667,	0.059406
0.933333,	0.059406
0.950000,	0.059406
0.966667,	0.059406
0.983333,	0.059406
1.000000,	0.059406
1.016667,	0.072343
1.033333,	0.085281
1.050000,	0.098218
1.066667,	0.111155
1.083333,	0.124092
1.100000,	0.137030
1.116667,	0.149967
1.133333,	0.162904
1.150000,	0.175842
1.166667,	0.188779
1.183333,	0.201716
1.200000,	0.214653
1.216667,	0.227591
1.233333,	0.240528
1.250000,	0.253465
1.266667,	0.266403
1.283333,	0.279340
1.300000,	0.292277
1.316667,	0.305215
1.333333,	0.318152
1.350000,	0.331089
1.366667,	0.344026
1.383333,	0.356964
1.400000,	0.369901
1.416667,	0.382838
1.433333,	0.395776
1.450000,	0.408713
1.466667,	0.421650
1.483333,	0.434587
1.500000,	0.447525
1.516667,	0.460462
1.533333,	0.473399
1.550000,	0.486337
1.566667,	0.499274
1.583333,	0.512211
1.600000,	0.525149
1.616667,	0.538086
1.633333,	0.551023
1.650000,	0.563960
1.666667,	0.576898
1.683333,	0.589835
1.700000,	0.602772
1.716667,	0.615710
1.733333,	0.628647
1.750000,	0.641584
1.766667,	0.654521
1.783333,	0.667459
1.800000,	0.680396
1.816667,	0.693333
1.833333,	0.706271
1.850000,	0.719208
1.866667,	0.732145
1.883333,	0.745083
1.900000,	0.758020
1.916667,	0.770957
1.933333,	0.783894
1.950000,	0.796832
1.966667,	0.809769
1.983333,	0.822706
2.000000,	0.835644
2.016667,	0.833487
2.033333,	0.831331
2.050000,	0.829175
2.066667,	0.827019
2.083333,	0.824862
2.100000,	0.822706
2.116667,	0.820550
2.133333,	0.818394
2.150000,	0.816238
2.166667,	0.814081
2.183333,	0.811925
2.200000,	0.809769
2.216667,	0.807613
2.233333,	0.805457
2.250000,	0.803300
2.266667,	0.801144
2.283333,	0.798988
2.300000,	0.796832
2.316667,	0.794675
2.333333,	0.792519
2.350000,	0.790363
2.366667,	0.788207
2.383333,	0.786051
2.400000,	0.783894
2.416667,	0.781738
2.433333,	0.779582
2.450000,	0.777426
2.466667,	0.775270
2.483333,	0.773113
2.500000,	0.770957
2.516667,	0.768801
2.533333,	0.766645
2.550000,	0.764488
2.566667,	0.762332
2.583333,	0.760176
2.600000,	0.758020
2.616667,	0.755864
2.633333,	0.753707
2.650000,	0.751551
2.666667,	0.749395
2.683333,	0.747239
2.700000,	0.745083
2.716667,	0.742926
2.733333,	0.740770
2.750000,	0.738614
2.766667,	0.736458
2.783333,	0.734301
2.800000,	0.732145
2.816667,	0.729989
2.833333,	0.727833
2.850000,	0.725677
2.866667,	0.723520
2.883333,	0.721364
2.900000,	0.719208
2.916667,	0.717052
2.933333,	0.714895
2.950000,	0.712739
2.966667,	0.710583
2.983333,	0.708427
3.000000,	0.706271
3.016667,	0.704114
3.033333,	0.701958
3.050000,	0.699802
3.066667,	0.697646
3.083333,	0.695490
3.100000,	0.693333
3.116667,	0.691177
3.133333,	0.689021
3.150000,	0.686865
3.166667,	0.684708
3.183333,	0.682552
3.200000,	0.680396
3.216667,	0.678240
3.233333,	0.676084
3.250000,	0.673927
3.266667,	0.671771
3.283333,	0.669615
3.300000,	0.667459
3.316667,	0.665303
3.333333,	0.663146
3.350000,	0.660990
3.366667,	0.658834
3.383333,	0.656678
3.400000,	0.654521
3.416667,	0.652365
3.433333,	0.650209
3.450000,	0.648053
3.466667,	0.645897
3.483333,	0.643740
3.500000,	0.641584
3.516667,	0.639428
3.533333,	0.637272
3.550000,	0.635116
3.566667,	0.632959
3.583333,	0.630803
3.600000,	0.628647
3.616667,	0.626491
3.633333,	0.624334
3.650000,	0.622178
3.666667,	0.620022
3.683333,	0.617866
3.700000,	0.615710
3.716667,	0.613553
3.733333,	0.611397
3.750000,	0.609241
3.766667,	0.607085
3.783333,	0.604928
3.800000,	0.602772
3.816667,	0.600616
3.833333,	0.598460
3.850000,	0.596304
3.866667,	0.594147
3.883333,	0.591991
3.900000,	0.589835
3.916667,	0.587679
3.933333,	0.585523
3.950000,	0.583366
3.966667,	0.581210
3.983333,	0.579054
4.000000,	0.576898
4.016667,	0.574741
4.033333,	0.572585
4.050000,	0.570429
4.066667,	0.568273
4.083333,	0.566117
4.100000,	0.563960
4.116667,	0.561804
4.133333,	0.559648
4.150000,	0.557492
4.166667,	0.555336
4.183333,	0.553179
4.200000,	0.551023
4.216667,	0.548867
4.233333,	0.546711
4.250000,	0.544554
4.266667,	0.542398
4.283333,	0.540242
4.300000,	0.538086
4.316667,	0.535930
4.333333,	0.533773
4.350000,	0.531617
4.366667,	0.529461
4.383333,	0.527305
4.400000,	0.525149
4.416667,	0.522992
4.433333,	0.520836
4.450000,	0.518680
4.466667,	0.516524
4.483333,	0.514367
4.500000,	0.512211
4.516667,	0.510055
4.533333,	0.507899
4.550000,	0.505743
4.566667,	0.503586
4.583333,	0.501430
4.600000,	0.499274
4.616667,	0.497118
4.633333,	0.494961
4.650000,	0.492805
4.666667,	0.490649
4.683333,	0.488493
4.700000,	0.486337
4.716667,	0.484180
4.733333,	0.482024
4.750000,	0.479868
4.766667,	0.477712
4.783333,	0.475556
4.800000,	0.473399
4.816667,	0.471243
4.833333,	0.469087
4.850000,	0.466931
4.866667,	0.464774
4.883333,	0.462618
4.900000,	0.460462
4.916667,	0.458306
4.933333,	0.456150
4.950000,	0.453993
4.966667,	0.451837
4.983333,	0.449681
5.000000,	0.447525
0.000000,	0.079208
0.016667,	0.079208
0.033333,	0.079208
0.050000,	0.079208
0.066667,	0.079208
0.083333,	0.079208
0.100000,	0.079208
0.116667,	0.079208
0.133333,	0.079208
0.150000,	0.079208
0.166667,	0.079208
0.183333,	0.079208
0.200000,	0.079208
0.216667,	0.079208
0.233333,	0.079208
0.250000,	0.079208
0.266667,	0.079208
0.283333,	0.079208
0.300000,	0.079208
0.316667,	0.079208
0.333333,	0.079208
0.350000,	0.079208
0.366667,	0.079208
0.383333,	0.079208
0.400000,	0.079208
0.416667,	0.079208
0.433333,	0.079208
0.450000,	0.079208
0.466667,	0.079208
0.483333,	0.079208
0.500000,	0.079208
0.516667,	0.079208
0.533333,	0.079208
0.550000,	0.079208
0.566667,	0.079208
0.583333,	0.079208
0.600000,	0.079208
0.616667,	0.079208
0.633333,	0.079208
0.650000,	0.079208
0.666667,	0.079208
0.683333,	0.079208
0.700000,	0.079208
0.716667,	0.079208
0.733333,	0.079208
0.750000,	0.079208
0.766667,	0.079208
0.783333,	0.079208
0.800000,	0.079208
0.816667,	0.079208
0.833333,	0.079208
0.850000,	0.079208
0.866667,	0.079208
0.883333,	0.079208
0.900000,	0.079208
0.916667,	0.079208
0.933333,	0.079208
0.950000,	0.079208
0.966667,	0.079208
0.983333,	0.079208
1.000000,	0.079208
1.016667,	0.092013
1.033333,	0.104818
1.050000,	0.117624
1.066667,	0.130429
1.083333,	0.143234
1.100000,	0.156040
1.116667,	0.168845
1.133333,	0.181650
1.150000,	0.194455
1.166667,	0.207261
1.183333,	0.220066
1.200000,	0.232871
1.216667,	0.245677
1.233333,	0.258482
1.250000,	0.271287
1.266667,	0.284092
1.283333,	0.296898
1.300000,	0.309703
1.316667,	0.322508
1.333333,	0.335314
1.350000,	0.348119
1.366667,	0.360924
1.383333,	0.373729
1.400000,	0.386535
1.416667,	0.399340
1.433333,	0.412145
1.450000,	0.424950
1.466667,	0.437756
1.483333,	0.450561
1.500000,	0.463366
1.516667,	0.476172
1.533333,	0.488977
1.550000,	0.501782
1.566667,	0.514587
1.583333,	0.527393
1.600000,	0.540198
1.616667,	0.553003
1.633333,	0.565809
1.650000,	0.578614
1.666667,	0.591419
1.683333,	0.604224
1.700000,	0.617030
1.716667,	0.629835
1.733333,	0.642640
1.750000,	0.655446
1.766667,	0.668251
1.783333,	0.681056
1.800000,	0.693861
1.816667,	0.706667
1.833333,	0.719472
1.850000,	0.732277
1.866667,	0.745083
1.883333,	0.757888
1.900000,	0.770693
1.916667,	0.783498
1.933333,	0.796304
1.950000,	0.809109
1.966667,	0.821914
1.983333,	0.834719
2.000000,	0.847525
2.016667,	0.845391
2.033333,	0.843256
2.050000,	0.841122
2.066667,	0.838988
2.083333,	0.836854
2.100000,	0.834719
2.116667,	0.832585
2.133333,	0.830451
2.150000,	0.828317
2.166667,	0.826183
2.183333,	0.824048
2.200000,	0.821914
2.216667,	0.819780
2.233333,	0.817646
2.250000,	0.815512
2.266667,	0.813377
2.283333,	0.811243
2.300000,	0.809109
2.316667,	0.806975
2.333333,	0.804840
2.350000,	0.802706
2.366667,	0.800572
2.383333,	0.798438
2.400000,	0.796304
2.416667,	0.794169
2.433333,	0.792035
2.450000,	0.789901
2.466667,	0.787767
2.483333,	0.785633
2.500000,	0.783498
2.516667,	0.781364
2.533333,	0.779230
2.550000,	0.777096
2.566667,	0.774961
2.583333,	0.772827
2.600000,	0.770693
2.616667,	0.768559
2.633333,	0.766425
2.650000,	0.764290
2.666667,	0.762156
2.683333,	0.760022
2.700000,	0.757888
2.716667,	0.755754
2.733333,	0.753619
2.750000,	0.751485
2.766667,	0.749351
2.783333,	0.747217
2.800000,	0.745083
2.816667,	0.742948
2.833333,	0.740814
2.850000,	0.738680
2.866667,	0.736546
2.883333,	0.734411
2.900000,	0.732277
2.916667,	0.730143
2.933333,	0.728009
2.950000,	0.725875
2.966667,	0.723740
2.983333,	0.721606
3.000000,	0.719472
3.016667,	0.717338
3.033333,	0.715204
3.050000,	0.713069
3.066667,	0.710935
3.083333,	0.708801
3.100000,	0.706667
3.116667,	0.704532
3.133333,	0.702398
3.150000,	0.700264
3.166667,	0.698130
3.183333,	0.695996
3.200000,	0.693861
3.216667,	0.691727
3.233333,	0.689593
3.250000,	0.687459
3.266667,	0.685325
3.283333,	0.683190
3.300000,	0.681056
3.316667,	0.678922
3.333333,	0.676788
3.350000,	0.674653
3.366667,	0.672519
3.383333,	0.670385
3.400000,	0.668251
3.416667,	0.666117
3.433333,	0.663982
3.450000,	0.661848
3.466667,	0.659714
3.483333,	0.657580
3.500000,	0.655446
3.516667,	0.653311
3.533333,	0.651177
3.550000,	0.649043
3.566667,	0.646909
3.583333,	0.644774
3.600000,	0.642640
3.616667,	0.640506
3.633333,	0.638372
3.650000,	0.636238
3.666667,	0.634103
3.683333,	0.631969
3.700000,	0.629835
3.716667,	0.627701
3.733333,	0.625567
3.750000,	0.623432
3.766667,	0.621298
3.783333,	0.619164
3.800000,	0.617030
3.816667,	0.614895
3.833333,	0.612761
3.850000,	0.610627
3.866667,	0.608493
3.883333,	0.606359
3.900000,	0.604224
3.916667,	0.602090
3.933333,	0.599956
3.950000,	0.597822
3.966667,	0.595688
3.983333,	0.593553
4.000000,	0.591419
4.016667,	0.589285
4.033333,	0.587151
4.050000,	0.585017
4.066667,	0.582882
4.083333,	0.580748
4.100000,	0.578614
4.116667,	0.576480
4.133333,	0.574345
4.150000,	0.572211
4.166667,	0.570077
4.183333,	0.567943
4.200000,	0.565809
4.216667,	0.563674
4.233333,	0.561540
4.250000,	0.559406
4.266667,	0.557272
4.283333,	0.555138
4.300000,	0.553003
4.316667,	0.550869
4.333333,	0.548735
4.350000,	0.546601
4.366667,	0.544466
4.383333,	0.542332
4.400000,	0.540198
4.416667,	0.538064
4.433333,	0.535930
4.450000,	0.533795
4.466667,	0.531661
4.483333,	0.529527
4.500000,	0.527393
4.516667,	0.525259
4.533333,	0.523124
4.550000,	0.520990
4.566667,	0.518856
4.583333,	0.516722
4.600000,	0.514587
4.616667,	0.512453
4.633333,	0.510319
4.650000,	0.508185
4.666667,	0.506051
4.683333,	0.503916
4.700000,	0.501782
4.716667,	0.499648
4.733333,	0.497514
4.750000,	0.495380
4.766667,	0.493245
4.783333,	0.491111
4.800000,	0.488977
4.816667,	0.486843
4.833333,	0.484708
4.850000,	0.482574
4.866667,	0.480440
4.883333,	0.478306
4.900000,	0.476172
4.916667,	0.474037
4.933333,	0.471903
4.950000,	0.469769
4.966667,	0.467635
4.983333,	0.465501
5.000000,	0.463366
0.000000,	0.099010
0.016667,	0.099010
0.033333,	0.099010
0.050000,	0.099010
0.066667,	0.099010
0.083333,	0.099010
0.100000,	0.099010
0.116667,	0.099010
0.133333,	0.099010
0.150000,	0.099010
0.166667,	0.099010
0.183333,	0.099010
0.200000,	0.099010
0.216667,	0.099010
0.233333,	0.099010
0.250000,	0.099010
0.266667,	0.099010
0.283333,	0.099010
0.300000,	0.099010
0.316667,	0.099010
0.333333,	0.099010
0.350000,	0.099010
0.366667,	0.099010
0.383333,	0.099010
0.400000,	0.099010
0.416667,	0.099010
0.433333,	0.099010
0.450000,	0.099010
0.466667,	0.099010
0.483333,	0.099010
0.500000,	0.099010
0.516667,	0.099010
0.533333,	0.099010
0.550000,	0.099010
0.566667,	0.099010
0.583333,	0.099010
0.600000,	0.099010
0.616667,	0.099010
0.633333,	0.099010
0.650000,	0.099010
0.666667,	0.099010
0.683333,	0.099010
0.700000,	0.099010
0.716667,	0.099010
0.733333,	0.099010
0.750000,	0.099010
0.766667,	0.099010
0.783333,	0.099010
0.800000,	0.099010
0.816667,	0.099010
0.833333,	0.099010
0.850000,	0.099010
0.866667,	0.099010
0.883333,	0.099010
0.900000,	0.099010
0.916667,	0.099010
0.933333,	0.099010
0.950000,	0.099010
0.966667,	0.099010
0.983333,	0.099010
1.000000,	0.099010
1.016667,	0.111683
1.033333,	0.124356
1.050000,	0.137030
1.066667,	0.149703
1.083333,	0.162376
1.100000,	0.175050
1.116667,	0.187723
1.133333,	0.200396