TITLE = "2DRampMesh"
VARIABLES = "X", "Y"
ZONE I=151, J=101, DATAPACKING=POINT
0.000000,	0.000000
0.033333,	0.000000
0.066667,	0.000000
0.100000,	0.000000
0.133333,	0.000000
0.166667,	0.000000
0.200000,	0.000000
0.233333,	0.000000
0.266667,	0.000000
0.300000,	0.000000
0.333333,	0.000000
0.366667,	0.000000
0.400000,	0.000000
0.433333,	0.000000
0.466667,	0.000000
0.500000,	0.000000
0.533333,	0.000000
0.566667,	0.000000
0.600000,	0.000000
0.633333,	0.000000
0.666667,	0.000000
0.700000,	0.000000
0.733333,	0.000000
0.766667,	0.000000
0.800000,	0.000000
0.833333,	0.000000
0.866667,	0.000000
0.900000,	0.000000
0.933333,	0.000000
0.966667,	0.000000
1.000000,	0.000000
1.033333,	0.000000
1.066667,	0.000000
1.100000,	0.000000
1.133333,	0.000000
1.166667,	0.000000
1.200000,	0.000000
1.233333,	0.000000
1.266667,	0.000000
1.300000,	0.000000
1.333333,	0.000000
1.366667,	0.000000
1.400000,	0.000000
1.433333,	0.000000
1.466667,	0.000000
1.500000,	0.000000
1.533333,	0.000000
1.566667,	0.000000
1.600000,	0.000000
1.633333,	0.000000
1.666667,	0.000000
1.700000,	0.000000
1.733333,	0.000000
1.766667,	0.000000
1.800000,	0.000000
1.833333,	0.000000
1.866667,	0.000000
1.900000,	0.000000
1.933333,	0.000000
1.966667,	0.000000
2.000000,	0.000000
2.033333,	0.000000
2.066667,	0.000000
2.100000,	0.000000
2.133333,	0.000000
2.166667,	0.000000
2.200000,	0.000000
2.233333,	0.000000
2.266667,	0.000000
2.300000,	0.000000
2.333333,	0.000000
2.366667,	0.000000
2.400000,	0.000000
2.433333,	0.000000
2.466667,	0.000000
2.500000,	0.000000
2.533333,	0.000000
2.566667,	0.000000
2.600000,	0.000000
2.633333,	0.000000
2.666667,	0.000000
2.700000,	0.000000
2.733333,	0.000000
2.766667,	0.000000
2.800000,	0.000000
2.833333,	0.000000
2.866667,	0.000000
2.900000,	0.000000
2.933333,	0.000000
2.966667,	0.000000
3.000000,	0.000000
3.033333,	0.000000
3.066667,	0.000000
3.100000,	0.000000
3.133333,	0.000000
3.166667,	0.000000
3.200000,	0.000000
3.233333,	0.000000
3.266667,	0.000000
3.300000,	0.000000
3.333333,	0.000000
3.366667,	0.000000
3.400000,	0.000000
3.433333,	0.000000
3.466667,	0.000000
3.500000,	0.000000
3.533333,	0.000000
3.566667,	0.000000
3.600000,	0.000000
3.633333,	0.000000
3.666667,	0.000000
3.700000,	0.000000
3.733333,	0.000000
3.766667,	0.000000
3.800000,	0.000000
3.833333,	0.000000
3.866667,	0.000000
3.900000,	0.000000
3.933333,	0.000000
3.966667,	0.000000
4.000000,	0.000000
4.033333,	0.000000
4.066667,	0.000000
4.100000,	0.000000
4.133333,	0.000000
4.166667,	0.000000
4.200000,	0.000000
4.233333,	0.000000
4.266667,	0.000000
4.300000,	0.000000
4.333333,	0.000000
4.366667,	0.000000
4.400000,	0.000000
4.433333,	0.000000
4.466667,	0.000000
4.500000,	0.000000
4.533333,	0.000000
4.566667,	0.000000
4.600000,	0.000000
4.633333,	0.000000
4.666667,	0.000000
4.700000,	0.000000
4.733333,	0.000000
4.766667,	0.000000
4.800000,	0.000000
4.833333,	0.000000
4.866667,	0.000000
4.900000,	0.000000
4.933333,	0.000000
4.966667,	0.000000
5.000000,	0.000000
0.000000,	0.000100
0.033333,	0.000100
0.066667,	0.000100
0.100000,	0.000100
0.133333,	0.000100
0.166667,	0.000100
0.200000,	0.000100
0.233333,	0.000100
0.266667,	0.000100
0.300000,	0.000100
0.333333,	0.000100
0.366667,	0.000100
0.400000,	0.000100
0.433333,	0.000100
0.466667,	0.000100
0.500000,	0.000100
0.533333,	0.000100
0.566667,	0.000100
0.600000,	0.000100
0.633333,	0.000100
0.666667,	0.000100
0.700000,	0.000100
0.733333,	0.000100
0.766667,	0.000100
0.800000,	0.000100
0.833333,	0.000100
0.866667,	0.000100
0.900000,	0.000100
0.933333,	0.000100
0.966667,	0.000100
1.000000,	0.000100
1.033333,	0.000100
1.066667,	0.000100
1.100000,	0.000100
1.133333,	0.000100
1.166667,	0.000100
1.200000,	0.000100
1.233333,	0.000100
1.266667,	0.000100
1.300000,	0.000100
1.333333,	0.000100
1.366667,	0.000100
1.400000,	0.000100
1.433333,	0.000100
1.466667,	0.000100
1.500000,	0.000100
1.533333,	0.000100
1.566667,	0.000100
1.600000,	0.000100
1.633333,	0.000100
1.666667,	0.000100
1.700000,	0.000100
1.733333,	0.000100
1.766667,	0.000100
1.800000,	0.000100
1.833333,	0.000100
1.866667,	0.000100
1.900000,	0.000100
1.933333,	0.000100
1.966667,	0.000100
2.000000,	0.000100
2.033333,	0.000100
2.066667,	0.000100
2.100000,	0.000100
2.133333,	0.000100
2.166667,	0.000100
2.200000,	0.000100
2.233333,	0.000100
2.266667,	0.000100
2.300000,	0.000100
2.333333,	0.000100
2.366667,	0.000100
2.400000,	0.000100
2.433333,	0.000100
2.466667,	0.000100
2.500000,	0.000100
2.533333,	0.000100
2.566667,	0.000100
2.600000,	0.000100
2.633333,	0.000100
2.666667,	0.000100
2.700000,	0.000100
2.733333,	0.000100
2.766667,	0.000100
2.800000,	0.000100
2.833333,	0.000100
2.866667,	0.000100
2.900000,	0.000100
2.933333,	0.000100
2.966667,	0.000100
3.000000,	0.000100
3.033333,	0.000100
3.066667,	0.000100
3.100000,	0.000100
3.133333,	0.000100
3.166667,	0.000100
3.200000,	0.000100
3.233333,	0.000100
3.266667,	0.000100
3.300000,	0.000100
3.333333,	0.000100
3.366667,	0.000100
3.400000,	0.000100
3.433333,	0.000100
3.466667,	0.000100
3.500000,	0.000100
3.533333,	0.000100
3.566667,	0.000100
3.600000,	0.000100
3.633333,	0.000100
3.666667,	0.000100
3.700000,	0.000100
3.733333,	0.000100
3.766667,	0.000100
3.800000,	0.000100
3.833333,	0.000100
3.866667,	0.000100
3.900000,	0.000100
3.933333,	0.000100
3.966667,	0.000100
4.000000,	0.000100
4.033333,	0.000100
4.066667,	0.000100
4.100000,	0.000100
4.133333,	0.000100
4.166667,	0.000100
4.200000,	0.000100
4.233333,	0.000100
4.266667,	0.000100
4.300000,	0.000100
4.333333,	0.000100
4.366667,	0.000100
4.400000,	0.000100
4.433333,	0.000100
4.466667,	0.000100
4.500000,	0.000100
4.533333,	0.000100
4.566667,	0.000100
4.600000,	0.000100
4.633333,	0.000100
4.666667,	0.000100
4.700000,	0.000100
4.733333,	0.000100
4.766667,	0.000100
4.800000,	0.000100
4.833333,	0.000100
4.866667,	0.000100
4.900000,	0.000100
4.933333,	0.000100
4.966667,	0.000100
5.000000,	0.000100
0.000000,	0.000206
0.033333,	0.000206
0.066667,	0.000206
0.100000,	0.000206
0.133333,	0.000206
0.166667,	0.000206
0.200000,	0.000206
0.233333,	0.000206
0.266667,	0.000206
0.300000,	0.000206
0.333333,	0.000206
0.366667,	0.000206
0.400000,	0.000206
0.433333,	0.000206
0.466667,	0.000206
0.500000,	0.000206
0.533333,	0.000206
0.566667,	0.000206
0.600000,	0.000206
0.633333,	0.000206
0.666667,	0.000206
0.700000,	0.000206
0.733333,	0.000206
0.766667,	0.000206
0.800000,	0.000206
0.833333,	0.000206
0.866667,	0.000206
0.900000,	0.000206
0.933333,	0.000206
0.966667,	0.000206
1.000000,	0.000206
1.033333,	0.000206
1.066667,	0.000206
1.100000,	0.000206
1.133333,	0.000206
1.166667,	0.000206
1.200000,	0.000206
1.233333,	0.000206
1.266667,	0.000206
1.300000,	0.000206
1.333333,	0.000206
1.366667,	0.000206
1.400000,	0.000206
1.433333,	0.000206
1.466667,	0.000206
1.500000,	0.000206
1.533333,	0.000206
1.566667,	0.000206
1.600000,	0.000206
1.633333,	0.000206
1.666667,	0.000206
1.700000,	0.000206
1.733333,	0.000206
1.766667,	0.000206
1.800000,	0.000206
1.833333,	0.000206
1.866667,	0.000206
1.900000,	0.000206
1.933333,	0.000206
1.966667,	0.000206
2.000000,	0.000206
2.033333,	0.000206
2.066667,	0.000206
2.100000,	0.000206
2.133333,	0.000206
2.166667,	0.000206
2.200000,	0.000206
2.233333,	0.000206
2.266667,	0.000206
2.300000,	0.000206
2.333333,	0.000206
2.366667,	0.000206
2.400000,	0.000206
2.433333,	0.000206
2.466667,	0.000206
2.500000,	0.000206
2.533333,	0.000206
2.566667,	0.000206
2.600000,	0.000206
2.633333,	0.000206
2.666667,	0.000206
2.700000,	0.000206
2.733333,	0.000206
2.766667,	0.000206
2.800000,	0.000206
2.833333,	0.000206
2.866667,	0.000206
2.900000,	0.000206
2.933333,	0.000206
2.966667,	0.000206
3.000000,	0.000206
3.033333,	0.000206
3.066667,	0.000206
3.100000,	0.000206
3.133333,	0.000206
3.166667,	0.000206
3.200000,	0.000206
3.233333,	0.000206
3.266667,	0.000206
3.300000,	0.000206
3.333333,	0.000206
3.366667,	0.000206
3.400000,	0.000206
3.433333,	0.000206
3.466667,	0.000206
3.500000,	0.000206
3.533333,	0.000206
3.566667,	0.000206
3.600000,	0.000206
3.633333,	0.000206
3.666667,	0.000206
3.700000,	0.000206
3.733333,	0.000206
3.766667,	0.000206
3.800000,	0.000206
3.833333,	0.000206
3.866667,	0.000206
3.900000,	0.000206
3.933333,	0.000206
3.966667,	0.000206
4.000000,	0.000206
4.033333,	0.000206
4.066667,	0.000206
4.100000,	0.000206
4.133333,	0.000206
4.166667,	0.000206
4.200000,	0.000206
4.233333,	0.000206
4.266667,	0.000206
4.300000,	0.000206
4.333333,	0.000206
4.366667,	0.000206
4.400000,	0.000206
4.433333,	0.000206
4.466667,	0.000206
4.500000,	0.000206
4.533333,	0.000206
4.566667,	0.000206
4.600000,	0.000206
4.633333,	0.000206
4.666667,	0.000206
4.700000,	0.000206
4.733333,	0.000206
4.766667,	0.000206
4.800000,	0.000206
4.833333,	0.000206
4.866667,	0.000206
4.900000,	0.000206
4.933333,	0.000206
4.966667,	0.000206
5.000000,	0.000206
0.000000,	0.000323
0.033333,	0.000323
0.066667,	0.000323
0.100000,	0.000323
0.133333,	0.000323
0.166667,	0.000323
0.200000,	0.000323
0.233333,	0.000323
0.266667,	0.000323
0.300000,	0.000323
0.333333,	0.000323
0.366667,	0.000323
0.400000,	0.000323
0.433333,	0.000323
0.466667,	0.000323
0.500000,	0.000323
0.533333,	0.000323
0.566667,	0.000323
0.600000,	0.000323
0.633333,	0.000323
0.666667,	0.000323
0.700000,	0.000323
0.733333,	0.000323
0.766667,	0.000323
0.800000,	0.000323
0.833333,	0.000323
0.866667,	0.000323
0.900000,	0.000323
0.933333,	0.000323
0.966667,	0.000323
1.000000,	0.000323
1.033333,	0.000323
1.066667,	0.000323
1.100000,	0.000323
1.133333,	0.000323
1.166667,	0.000323
1.200000,	0.000323
1.233333,	0.000323
1.266667,	0.000323
1.300000,	0.000323
1.333333,	0.000323
1.366667,	0.000323
1.400000,	0.000323
1.433333,	0.000323
1.466667,	0.000323
1.500000,	0.000323
1.533333,	0.000323
1.566667,	0.000323
1.600000,	0.000323
1.633333,	0.000323
1.666667,	0.000323
1.700000,	0.000323
1.733333,	0.000323
1.766667,	0.000323
1.800000,	0.000323
1.833333,	0.000323
1.866667,	0.000323
1.900000,	0.000323
1.933333,	0.000323
1.966667,	0.000323
2.000000,	0.000323
2.033333,	0.000323
2.066667,	0.000323
2.100000,	0.000323
2.133333,	0.000323
2.166667,	0.000323
2.200000,	0.000323
2.233333,	0.000323
2.266667,	0.000323
2.300000,	0.000323
2.333333,	0.000323
2.366667,	0.000323
2.400000,	0.000323
2.433333,	0.000323
2.466667,	0.000323
2.500000,	0.000323
2.533333,	0.000323
2.566667,	0.000323
2.600000,	0.000323
2.633333,	0.000323
2.666667,	0.000323
2.700000,	0.000323
2.733333,	0.000323
2.766667,	0.000323
2.800000,	0.000323
2.833333,	0.000323
2.866667,	0.000323
2.900000,	0.000323
2.933333,	0.000323
2.966667,	0.000323
3.000000,	0.000323
3.033333,	0.000323
3.066667,	0.000323
3.100000,	0.000323
3.133333,	0.000323
3.166667,	0.000323
3.200000,	0.000323
3.233333,	0.000323
3.266667,	0.000323
3.300000,	0.000323
3.333333,	0.000323
3.366667,	0.000323
3.400000,	0.000323
3.433333,	0.000323
3.466667,	0.000323
3.500000,	0.000323
3.533333,	0.000323
3.566667,	0.000323
3.600000,	0.000323
3.633333,	0.000323
3.666667,	0.000323
3.700000,	0.000323
3.733333,	0.000323
3.766667,	0.000323
3.800000,	0.000323
3.833333,	0.000323
3.866667,	0.000323
3.900000,	0.000323
3.933333,	0.000323
3.966667,	0.000323
4.000000,	0.000323
4.033333,	0.000323
4.066667,	0.000323
4.100000,	0.000323
4.133333,	0.000323
4.166667,	0.000323
4.200000,	0.000323
4.233333,	0.000323
4.266667,	0.000323
4.300000,	0.000323
4.333333,	0.000323
4.366667,	0.000323
4.400000,	0.000323
4.433333,	0.000323
4.466667,	0.000323
4.500000,	0.000323
4.533333,	0.000323
4.566667,	0.000323
4.600000,	0.000323
4.633333,	0.000323
4.666667,	0.000323
4.700000,	0.000323
4.733333,	0.000323
4.766667,	0.000323
4.800000,	0.000323
4.833333,	0.000323
4.866667,	0.000323
4.900000,	0.000323
4.933333,	0.000323
4.966667,	0.000323
5.000000,	0.000323
0.000000,	0.000459
0.033333,	0.000459
0.066667,	0.000459
0.100000,	0.000459
0.133333,	0.000459
0.166667,	0.000459
0.200000,	0.000459
0.233333,	0.000459
0.266667,	0.000459
0.300000,	0.000459
0.333333,	0.000459
0.366667,	0.000459
0.400000,	0.000459
0.433333,	0.000459
0.466667,	0.000459
0.500000,	0.000459
0.533333,	0.000459
0.566667,	0.000459
0.600000,	0.000459
0.633333,	0.000459
0.666667,	0.000459
0.700000,	0.000459
0.733333,	0.000459
0.766667,	0.000459
0.800000,	0.000459
0.833333,	0.000459
0.866667,	0.000459
0.900000,	0.000459
0.933333,	0.000459
0.966667,	0.000459
1.000000,	0.000459
1.033333,	0.000459
1.066667,	0.000459
1.100000,	0.000459
1.133333,	0.000459
1.166667,	0.000459
1.200000,	0.000459
1.233333,	0.000459
1.266667,	0.000459
1.300000,	0.000459
1.333333,	0.000459
1.366667,	0.000459
1.400000,	0.000459
1.433333,	0.000459
1.466667,	0.000459
1.500000,	0.000459
1.533333,	0.000459
1.566667,	0.000459
1.600000,	0.000459
1.633333,	0.000459
1.666667,	0.000459
1.700000,	0.000459
1.733333,	0.000459
1.766667,	0.000459
1.800000,	0.000459
1.833333,	0.000459
1.866667,	0.000459
1.900000,	0.000459
1.933333,	0.000459
1.966667,	0.000459
2.000000,	0.000459
2.033333,	0.000459
2.066667,	0.000459
2.100000,	0.000459
2.133333,	0.000459
2.166667,	0.000459
2.200000,	0.000459
2.233333,	0.000459
2.266667,	0.000459
2.300000,	0.000459
2.333333,	0.000459
2.366667,	0.000459
2.400000,	0.000459
2.433333,	0.000459
2.466667,	0.000459
2.500000,	0.000459
2.533333,	0.000459
2.566667,	0.000459
2.600000,	0.000459
2.633333,	0.000459
2.666667,	0.000459
2.700000,	0.000459
2.733333,	0.000459
2.766667,	0.000459
2.800000,	0.000459
2.833333,	0.000459
2.866667,	0.000459
2.900000,	0.000459
2.933333,	0.000459
2.966667,	0.000459
3.000000,	0.000459
3.033333,	0.000459
3.066667,	0.000459
3.100000,	0.000459
3.133333,	0.000459
3.166667,	0.000459
3.200000,	0.000459
3.233333,	0.000459
3.266667,	0.000459
3.300000,	0.000459
3.333333,	0.000459
3.366667,	0.000459
3.400000,	0.000459
3.433333,	0.000459
3.466667,	0.000459
3.500000,	0.000459
3.533333,	0.000459
3.566667,	0.000459
3.600000,	0.000459
3.633333,	0.000459
3.666667,	0.000459
3.700000,	0.000459
3.733333,	0.000459
3.766667,	0.000459
3.800000,	0.000459
3.833333,	0.000459
3.866667,	0.000459
3.900000,	0.000459
3.933333,	0.000459
3.966667,	0.000459
4.000000,	0.000459
4.033333,	0.000459
4.066667,	0.000459
4.100000,	0.000459
4.133333,	0.000459
4.166667,	0.000459
4.200000,	0.000459
4.233333,	0.000459
4.266667,	0.000459
4.300000,	0.000459
4.333333,	0.000459
4.366667,	0.000459
4.400000,	0.000459
4.433333,	0.000459
4.466667,	0.000459
4.500000,	0.000459
4.533333,	0.000459
4.566667,	0.000459
4.600000,	0.000459
4.633333,	0.000459
4.666667,	0.000459
4.700000,	0.000459
4.733333,	0.000459
4.766667,	0.000459
4.800000,	0.000459
4.833333,	0.000459
4.866667,	0.000459
4.900000,	0.000459
4.933333,	0.000459
4.966667,	0.000459
5.000000,	0.000459
0.000000,	0.000618
0.033333,	0.000618
0.066667,	0.000618
0.100000,	0.000618
0.133333,	0.000618
0.166667,	0.000618
0.200000,	0.000618
0.233333,	0.000618
0.266667,	0.000618
0.300000,	0.000618
0.333333,	0.000618
0.366667,	0.000618
0.400000,	0.000618
0.433333,	0.000618
0.466667,	0.000618
0.500000,	0.000618
0.533333,	0.000618
0.566667,	0.000618
0.600000,	0.000618
0.633333,	0.000618
0.666667,	0.000618
0.700000,	0.000618
0.733333,	0.000618
0.766667,	0.000618
0.800000,	0.000618
0.833333,	0.000618
0.866667,	0.000618
0.900000,	0.000618
0.933333,	0.000618
0.966667,	0.000618
1.000000,	0.000618
1.033333,	0.000618
1.066667,	0.000618
1.100000,	0.000618
1.133333,	0.000618
1.166667,	0.000618
1.200000,	0.000618
1.233333,	0.000618
1.266667,	0.000618
1.300000,	0.000618
1.333333,	0.000618
1.366667,	0.000618
1.400000,	0.000618
1.433333,	0.000618
1.466667,	0.000618
1.500000,	0.000618
1.533333,	0.000618
1.566667,	0.000618
1.600000,	0.000618
1.633333,	0.000618
1.666667,	0.000618
1.700000,	0.000618
1.733333,	0.000618
1.766667,	0.000618
1.800000,	0.000618
1.833333,	0.000618
1.866667,	0.000618
1.900000,	0.000618
1.933333,	0.000618
1.966667,	0.000618
2.000000,	0.000618
2.033333,	0.000618
2.066667,	0.000618
2.100000,	0.000618
2.133333,	0.000618
2.166667,	0.000618
2.200000,	0.000618
2.233333,	0.000618
2.266667,	0.000618
2.300000,	0.000618
2.333333,	0.000618
2.366667,	0.000618
2.400000,	0.000618
2.433333,	0.000618
2.466667,	0.000618
2.500000,	0.000618
2.533333,	0.000618
2.566667,	0.000618
2.600000,	0.000618
2.633333,	0.000618
2.666667,	0.000618
2.700000,	0.000618
2.733333,	0.000618
2.766667,	0.000618
2.800000,	0.000618
2.833333,	0.000618
2.866667,	0.000618
2.900000,	0.000618
2.933333,	0.000618
2.966667,	0.000618
3.000000,	0.000618
3.033333,	0.000618
3.066667,	0.000618
3.100000,	0.000618
3.133333,	0.000618
3.166667,	0.000618
3.200000,	0.000618
3.233333,	0.000618
3.266667,	0.000618
3.300000,	0.000618
3.333333,	0.000618
3.366667,	0.000618
3.400000,	0.000618
3.433333,	0.000618
3.466667,	0.000618
3.500000,	0.000618
3.533333,	0.000618
3.566667,	0.000618
3.600000,	0.000618
3.633333,	0.000618
3.666667,	0.000618
3.700000,	0.000618
3.733333,	0.000618
3.766667,	0.000618
3.800000,	0.000618
3.833333,	0.000618
3.866667,	0.000618
3.900000,	0.000618
3.933333,	0.000618
3.966667,	0.000618
4.000000,	0.000618
4.033333,	0.000618
4.066667,	0.000618
4.100000,	0.000618
4.133333,	0.000618
4.166667,	0.000618
4.200000,	0.000618
4.233333,	0.000618
4.266667,	0.000618
4.300000,	0.000618
4.333333,	0.000618
4.366667,	0.000618
4.400000,	0.000618
4.433333,	0.000618
4.466667,	0.000618
4.500000,	0.000618
4.533333,	0.000618
4.566667,	0.000618
4.600000,	0.000618
4.633333,	0.000618
4.666667,	0.000618
4.700000,	0.000618
4.733333,	0.000618
4.766667,	0.000618
4.800000,	0.000618
4.833333,	0.000618
4.866667,	0.000618
4.900000,	0.000618
4.933333,	0.000618
4.966667,	0.000618
5.000000,	0.000618
0.000000,	0.000806
0.033333,	0.000806
0.066667,	0.000806
0.100000,	0.000806
0.133333,	0.000806
0.166667,	0.000806
0.200000,	0.000806
0.233333,	0.000806
0.266667,	0.000806
0.300000,	0.000806
0.333333,	0.000806
0.366667,	0.000806
0.400000,	0.000806
0.433333,	0.000806
0.466667,	0.000806
0.500000,	0.000806
0.533333,	0.000806
0.566667,	0.000806
0.600000,	0.000806
0.633333,	0.000806
0.666667,	0.000806
0.700000,	0.000806
0.733333,	0.000806
0.766667,	0.000806
0.800000,	0.000806
0.833333,	0.000806
0.866667,	0.000806
0.900000,	0.000806
0.933333,	0.000806
0.966667,	0.000806
1.000000,	0.000806
1.033333,	0.000806
1.066667,	0.000806
1.100000,	0.000806
1.133333,	0.000806
1.166667,	0.000806
1.200000,	0.000806
1.233333,	0.000806
1.266667,	0.000806
1.300000,	0.000806
1.333333,	0.000806
1.366667,	0.000806
1.400000,	0.000806
1.433333,	0.000806
1.466667,	0.000806
1.500000,	0.000806
1.533333,	0.000806
1.566667,	0.000806
1.600000,	0.000806
1.633333,	0.000806
1.666667,	0.000806
1.700000,	0.000806
1.733333,	0.000806
1.766667,	0.000806
1.800000,	0.000806
1.833333,	0.000806
1.866667,	0.000806
1.900000,	0.000806
1.933333,	0.000806
1.966667,	0.000806
2.000000,	0.000806
2.033333,	0.000806
2.066667,	0.000806
2.100000,	0.000806
2.133333,	0.000806
2.166667,	0.000806
2.200000,	0.000806
2.233333,	0.000806
2.266667,	0.000806
2.300000,	0.000806
2.333333,	0.000806
2.366667,	0.000806
2.400000,	0.000806
2.433333,	0.000806
2.466667,	0.000806
2.500000,	0.000806
2.533333,	0.000806
2.566667,	0.000806
2.600000,	0.000806
2.633333,	0.000806
2.666667,	0.000806
2.700000,	0.000806
2.733333,	0.000806
2.766667,	0.000806
2.800000,	0.000806
2.833333,	0.000806
2.866667,	0.000806
2.900000,	0.000806
2.933333,	0.000806
2.966667,	0.000806
3.000000,	0.000806
3.033333,	0.000806
3.066667,	0.000806
3.100000,	0.000806
3.133333,	0.000806
3.166667,	0.000806
3.200000,	0.000806
3.233333,	0.000806
3.266667,	0.000806
3.300000,	0.000806
3.333333,	0.000806
3.366667,	0.000806
3.400000,	0.000806
3.433333,	0.000806
3.466667,	0.000806
3.500000,	0.000806
3.533333,	0.000806
3.566667,	0.000806
3.600000,	0.000806
3.633333,	0.000806
3.666667,	0.000806
3.700000,	0.000806
3.733333,	0.000806
3.766667,	0.000806
3.800000,	0.000806
3.833333,	0.000806
3.866667,	0.000806
3.900000,	0.000806
3.933333,	0.000806
3.966667,	0.000806
4.000000,	0.000806
4.033333,	0.000806
4.066667,	0.000806
4.100000,	0.000806
4.133333,	0.000806
4.166667,	0.000806
4.200000,	0.000806
4.233333,	0.000806
4.266667,	0.000806
4.300000,	0.000806
4.333333,	0.000806
4.366667,	0.000806
4.400000,	0.000806
4.433333,	0.000806
4.466667,	0.000806
4.500000,	0.000806
4.533333,	0.000806
4.566667,	0.000806
4.600000,	0.000806
4.633333,	0.000806
4.666667,	0.000806
4.700000,	0.000806
4.733333,	0.000806
4.766667,	0.000806
4.800000,	0.000806
4.833333,	0.000806
4.866667,	0.000806
4.900000,	0.000806
4.933333,	0.000806
4.966667,	0.000806
5.000000,	0.000806
0.000000,	0.001029
0.033333,	0.001029
0.066667,	0.001029
0.100000,	0.001029
0.133333,	0.001029
0.166667,	0.001029
0.200000,	0.001029
0.233333,	0.001029
0.266667,	0.001029
0.300000,	0.001029
0.333333,	0.001029
0.366667,	0.001029
0.400000,	0.001029
0.433333,	0.001029
0.466667,	0.001029
0.500000,	0.001029
0.533333,	0.001029
0.566667,	0.001029
0.600000,	0.001029
0.633333,	0.001029
0.666667,	0.001029
0.700000,	0.001029
0.733333,	0.001029
0.766667,	0.001029
0.800000,	0.001029
0.833333,	0.001029
0.866667,	0.001029
0.900000,	0.001029
0.933333,	0.001029
0.966667,	0.001029
1.000000,	0.001029
1.033333,	0.001029
1.066667,	0.001029
1.100000,	0.001029
1.133333,	0.001029
1.166667,	0.001029
1.200000,	0.001029
1.233333,	0.001029
1.266667,	0.001029
1.300000,	0.001029
1.333333,	0.001029
1.366667,	0.001029
1.400000,	0.001029
1.433333,	0.001029
1.466667,	0.001029
1.500000,	0.001029
1.533333,	0.001029
1.566667,	0.001029
1.600000,	0.001029
1.633333,	0.001029
1.666667,	0.001029
1.700000,	0.001029
1.733333,	0.001029
1.766667,	0.001029
1.800000,	0.001029
1.833333,	0.001029
1.866667,	0.001029
1.900000,	0.001029
1.933333,	0.001029
1.966667,	0.001029
2.000000,	0.001029
2.033333,	0.001029
2.066667,	0.001029
2.100000,	0.001029
2.133333,	0.001029
2.166667,	0.001029
2.200000,	0.001029
2.233333,	0.001029
2.266667,	0.001029
2.300000,	0.001029
2.333333,	0.001029
2.366667,	0.001029
2.400000,	0.001029
2.433333,	0.001029
2.466667,	0.001029
2.500000,	0.001029
2.533333,	0.001029
2.566667,	0.001029
2.600000,	0.001029
2.633333,	0.001029
2.666667,	0.001029
2.700000,	0.001029
2.733333,	0.001029
2.766667,	0.001029
2.800000,	0.001029
2.833333,	0.001029
2.866667,	0.001029
2.900000,	0.001029
2.933333,	0.001029
2.966667,	0.001029
3.000000,	0.001029
3.033333,	0.001029
3.066667,	0.001029
3.100000,	0.001029
3.133333,	0.001029
3.166667,	0.001029
3.200000,	0.001029
3.233333,	0.001029
3.266667,	0.001029
3.300000,	0.001029
3.333333,	0.001029
3.366667,	0.001029
3.400000,	0.001029
3.433333,	0.001029
3.466667,	0.001029
3.500000,	0.001029
3.533333,	0.001029
3.566667,	0.001029
3.600000,	0.001029
3.633333,	0.001029
3.666667,	0.001029
3.700000,	0.001029
3.733333,	0.001029
3.766667,	0.001029
3.800000,	0.001029
3.833333,	0.001029
3.866667,	0.001029
3.900000,	0.001029
3.933333,	0.001029
3.966667,	0.001029
4.000000,	0.001029
4.033333,	0.001029
4.066667,	0.001029
4.100000,	0.001029
4.133333,	0.001029
4.166667,	0.001029
4.200000,	0.001029
4.233333,	0.001029
4.266667,	0.001029
4.300000,	0.001029
4.333333,	0.001029
4.366667,	0.001029
4.400000,	0.001029
4.433333,	0.001029
4.466667,	0.001029
4.500000,	0.001029
4.533333,	0.001029
4.566667,	0.001029
4.600000,	0.001029
4.633333,	0.001029
4.666667,	0.001029
4.700000,	0.001029
4.733333,	0.001029
4.766667,	0.001029
4.800000,	0.001029
4.833333,	0.001029
4.866667,	0.001029
4.900000,	0.001029
4.933333,	0.001029
4.966667,	0.001029
5.000000,	0.001029
0.000000,	0.001294
0.033333,	0.001294
0.066667,	0.001294
0.100000,	0.001294
0.133333,	0.001294
0.166667,	0.001294
0.200000,	0.001294
0.233333,	0.001294
0.266667,	0.001294
0.300000,	0.001294
0.333333,	0.001294
0.366667,	0.001294
0.400000,	0.001294
0.433333,	0.001294
0.466667,	0.001294
0.500000,	0.001294
0.533333,	0.001294
0.566667,	0.001294
0.600000,	0.001294
0.633333,	0.001294
0.666667,	0.001294
0.700000,	0.001294
0.733333,	0.001294
0.766667,	0.001294
0.800000,	0.001294
0.833333,	0.001294
0.866667,	0.001294
0.900000,	0.001294
0.933333,	0.001294
0.966667,	0.001294
1.000000,	0.001294
1.033333,	0.001294
1.066667,	0.001294
1.100000,	0.001294
1.133333,	0.001294
1.166667,	0.001294
1.200000,	0.001294
1.233333,	0.001294
1.266667,	0.001294
1.300000,	0.001294
1.333333,	0.001294
1.366667,	0.001294
1.400000,	0.001294
1.433333,	0.001294
1.466667,	0.001294
1.500000,	0.001294
1.533333,	0.001294
1.566667,	0.001294
1.600000,	0.001294
1.633333,	0.001294
1.666667,	0.001294
1.700000,	0.001294
1.733333,	0.001294
1.766667,	0.001294
1.800000,	0.001294
1.833333,	0.001294
1.866667,	0.001294
1.900000,	0.001294
1.933333,	0.001294
1.966667,	0.001294
2.000000,	0.001294
2.033333,	0.001294
2.066667,	0.001294
2.100000,	0.001294
2.133333,	0.001294
2.166667,	0.001294
2.200000,	0.001294
2.233333,	0.001294
2.266667,	0.001294
2.300000,	0.001294
2.333333,	0.001294
2.366667,	0.001294
2.400000,	0.001294
2.433333,	0.001294
2.466667,	0.001294
2.500000,	0.001294
2.533333,	0.001294
2.566667,	0.001294
2.600000,	0.001294
2.633333,	0.001294
2.666667,	0.001294
2.700000,	0.001294
2.733333,	0.001294
2.766667,	0.001294
2.800000,	0.001294
2.833333,	0.001294
2.866667,	0.001294
2.900000,	0.001294
2.933333,	0.001294
2.966667,	0.001294
3.000000,	0.001294
3.033333,	0.001294
3.066667,	0.001294
3.100000,	0.001294
3.133333,	0.001294
3.166667,	0.001294
3.200000,	0.001294
3.233333,	0.001294
3.266667,	0.001294
3.300000,	0.001294
3.333333,	0.001294
3.366667,	0.001294
3.400000,	0.001294
3.433333,	0.001294
3.466667,	0.001294
3.500000,	0.001294
3.533333,	0.001294
3.566667,	0.001294
3.600000,	0.001294
3.633333,	0.001294
3.666667,	0.001294
3.700000,	0.001294
3.733333,	0.001294
3.766667,	0.001294
3.800000,	0.001294
3.833333,	0.001294
3.866667,	0.001294
3.900000,	0.001294
3.933333,	0.001294
3.966667,	0.001294
4.000000,	0.001294
4.033333,	0.001294
4.066667,	0.001294
4.100000,	0.001294
4.133333,	0.001294
4.166667,	0.001294
4.200000,	0.001294
4.233333,	0.001294
4.266667,	0.001294
4.300000,	0.001294
4.333333,	0.001294
4.366667,	0.001294
4.400000,	0.001294
4.433333,	0.001294
4.466667,	0.001294
4.500000,	0.001294
4.533333,	0.001294
4.566667,	0.001294
4.600000,	0.001294
4.633333,	0.001294
4.666667,	0.001294
4.700000,	0.001294
4.733333,	0.001294
4.766667,	0.001294
4.800000,	0.001294
4.833333,	0.001294
4.866667,	0.001294
4.900000,	0.001294
4.933333,	0.001294
4.966667,	0.001294
5.000000,	0.001294
0.000000,	0.001606
0.033333,	0.001606
0.066667,	0.001606
0.100000,	0.001606
0.133333,	0.001606
0.166667,	0.001606
0.200000,	0.001606
0.233333,	0.001606
0.266667,	0.001606
0.300000,	0.001606
0.333333,	0.001606
0.366667,	0.001606
0.400000,	0.001606
0.433333,	0.001606
0.466667,	0.001606
0.500000,	0.001606
0.533333,	0.001606
0.566667,	0.001606
0.600000,	0.001606
0.633333,	0.001606
0.666667,	0.001606
0.700000,	0.001606
0.733333,	0.001606
0.766667,	0.001606
0.800000,	0.001606
0.833333,	0.001606
0.866667,	0.001606
0.900000,	0.001606
0.933333,	0.001606
0.966667,	0.001606
1.000000,	0.001606
1.033333,	0.001606
1.066667,	0.001606
1.100000,	0.001606
1.133333,	0.001606
1.166667,	0.001606
1.200000,	0.001606
1.233333,	0.001606
1.266667,	0.001606
1.300000,	0.001606
1.333333,	0.001606
1.366667,	0.001606
1.400000,	0.001606
1.433333,	0.001606
1.466667,	0.001606
1.500000,	0.001606
1.533333,	0.001606
1.566667,	0.001606
1.600000,	0.001606
1.633333,	0.001606
1.666667,	0.001606
1.700000,	0.001606
1.733333,	0.001606
1.766667,	0.001606
1.800000,	0.001606
1.833333,	0.001606
1.866667,	0.001606
1.900000,	0.001606
1.933333,	0.001606
1.966667,	0.001606
2.000000,	0.001606
2.033333,	0.001606
2.066667,	0.001606
2.100000,	0.001606
2.133333,	0.001606
2.166667,	0.001606
2.200000,	0.001606
2.233333,	0.001606
2.266667,	0.001606
2.300000,	0.001606
2.333333,	0.001606
2.366667,	0.001606
2.400000,	0.001606
2.433333,	0.001606
2.466667,	0.001606
2.500000,	0.001606
2.533333,	0.001606
2.566667,	0.001606
2.600000,	0.001606
2.633333,	0.001606
2.666667,	0.001606
2.700000,	0.001606
2.733333,	0.001606
2.766667,	0.001606
2.800000,	0.001606
2.833333,	0.001606
2.866667,	0.001606
2.900000,	0.001606
2.933333,	0.001606
2.966667,	0.001606
3.000000,	0.001606
3.033333,	0.001606
3.066667,	0.001606
3.100000,	0.001606
3.133333,	0.001606
3.166667,	0.001606
3.200000,	0.001606
3.233333,	0.001606
3.266667,	0.001606
3.300000,	0.001606
3.333333,	0.001606
3.366667,	0.001606
3.400000,	0.001606
3.433333,	0.001606
3.466667,	0.001606
3.500000,	0.001606
3.533333,	0.001606
3.566667,	0.001606
3.600000,	0.001606
3.633333,	0.001606
3.666667,	0.001606
3.700000,	0.001606
3.733333,	0.001606
3.766667,	0.001606
3.800000,	0.001606
3.833333,	0.001606
3.866667,	0.001606
3.900000,	0.001606
3.933333,	0.001606
3.966667,	0.001606
4.000000,	0.001606
4.033333,	0.001606
4.066667,	0.001606
4.100000,	0.001606
4.133333,	0.001606
4.166667,	0.001606
4.200000,	0.001606
4.233333,	0.001606
4.266667,	0.001606
4.300000,	0.001606
4.333333,	0.001606
4.366667,	0.001606
4.400000,	0.001606
4.433333,	0.001606
4.466667,	0.001606
4.500000,	0.001606
4.533333,	0.001606
4.566667,	0.001606
4.600000,	0.001606
4.633333,	0.001606
4.666667,	0.001606
4.700000,	0.001606
4.733333,	0.001606
4.766667,	0.001606
4.800000,	0.001606
4.833333,	0.001606
4.866667,	0.001606
4.900000,	0.001606
4.933333,	0.001606
4.966667,	0.001606
5.000000,	0.001606
0.000000,	0.001970
0.033333,	0.001970
0.066667,	0.001970
0.100000,	0.001970
0.133333,	0.001970
0.166667,	0.001970
0.200000,	0.001970
0.233333,	0.001970
0.266667,	0.001970
0.300000,	0.001970
0.333333,	0.001970
0.366667,	0.001970
0.400000,	0.001970
0.433333,	0.001970
0.466667,	0.001970
0.500000,	0.001970
0.533333,	0.001970
0.566667,	0.001970
0.600000,	0.001970
0.633333,	0.001970
0.666667,	0.001970
0.700000,	0.001970
0.733333,	0.001970
0.766667,	0.001970
0.800000,	0.001970
0.833333,	0.001970
0.866667,	0.001970
0.900000,	0.001970
0.933333,	0.001970
0.966667,	0.001970
1.000000,	0.001970
1.033333,	0.001970
1.066667,	0.001970
1.100000,	0.001970
1.133333,	0.001970
1.166667,	0.001970
1.200000,	0.001970
1.233333,	0.001970
1.266667,	0.001970
1.300000,	0.001970
1.333333,	0.001970
1.366667,	0.001970
1.400000,	0.001970
1.433333,	0.001970
1.466667,	0.001970
1.500000,	0.001970
1.533333,	0.001970
1.566667,	0.001970
1.600000,	0.001970
1.633333,	0.001970
1.666667,	0.001970
1.700000,	0.001970
1.733333,	0.001970
1.766667,	0.001970
1.800000,	0.001970
1.833333,	0.001970
1.866667,	0.001970
1.900000,	0.001970
1.933333,	0.001970
1.966667,	0.001970
2.000000,	0.001970
2.033333,	0.001970
2.066667,	0.001970
2.100000,	0.001970