TITLE = "2DRampMesh"
VARIABLES = "X", "Y"
ZONE I=420, J=210, DATAPACKING=POINT
  0.0000000000000000,  0.0000000000000000
  0.0148105605812192,  0.0000000000000000
  0.0296211211624384,  0.0000000000000000
  0.0444316817436576,  0.0000000000000000
  0.0592422423248768,  0.0000000000000000
  0.0740528029060959,  0.0000000000000000
  0.0888633634873151,  0.0000000000000000
  0.1036739240685343,  0.0000000000000000
  0.1184844846497535,  0.0000000000000000
  0.1332950452309727,  0.0000000000000000
  0.1481056058121919,  0.0000000000000000
  0.1629161663934111,  0.0000000000000000
  0.1777267269746303,  0.0000000000000000
  0.1925372875558495,  0.0000000000000000
  0.2073478481370686,  0.0000000000000000
  0.2221584087182878,  0.0000000000000000
  0.2369689692995070,  0.0000000000000000
  0.2517795298807262,  0.0000000000000000
  0.2665900904619454,  0.0000000000000000
  0.2814006510431646,  0.0000000000000000
  0.2962112116243837,  0.0000000000000000
  0.3110217722056030,  0.0000000000000000
  0.3258323327868221,  0.0000000000000000
  0.3406428933680413,  0.0000000000000000
  0.3554534539492605,  0.0000000000000000
  0.3702640145304797,  0.0000000000000000
  0.3850745751116989,  0.0000000000000000
  0.3998851356929181,  0.0000000000000000
  0.4146956962741373,  0.0000000000000000
  0.4295062568553564,  0.0000000000000000
  0.4443168174365756,  0.0000000000000000
  0.4591273780177948,  0.0000000000000000
  0.4739379385990140,  0.0000000000000000
  0.4887484991802332,  0.0000000000000000
  0.5035590597614524,  0.0000000000000000
  0.5183696203426715,  0.0000000000000000
  0.5331801809238908,  0.0000000000000000
  0.5479907415051100,  0.0000000000000000
  0.5628013020863292,  0.0000000000000000
  0.5776118626675483,  0.0000000000000000
  0.5924224232487675,  0.0000000000000000
  0.6072329838299867,  0.0000000000000000
  0.6220435444112059,  0.0000000000000000
  0.6368541049924251,  0.0000000000000000
  0.6516646655736442,  0.0000000000000000
  0.6664752261548634,  0.0000000000000000
  0.6812857867360826,  0.0000000000000000
  0.6960963473173019,  0.0000000000000000
  0.7109069078985211,  0.0000000000000000
  0.7257174684797402,  0.0000000000000000
  0.7405280290609594,  0.0000000000000000
  0.7553385896421786,  0.0000000000000000
  0.7701491502233978,  0.0000000000000000
  0.7849597108046169,  0.0000000000000000
  0.7997702713858361,  0.0000000000000000
  0.8145808319670553,  0.0000000000000000
  0.8293913925482745,  0.0000000000000000
  0.8442019531294938,  0.0000000000000000
  0.8590125137107129,  0.0000000000000000
  0.8738230742919321,  0.0000000000000000
  0.8886336348731513,  0.0000000000000000
  0.9034441954543705,  0.0000000000000000
  0.9182547560355896,  0.0000000000000000
  0.9330653166168088,  0.0000000000000000
  0.9478758771980280,  0.0000000000000000
  0.9626864377792472,  0.0000000000000000
  0.9774969983604664,  0.0000000000000000
  0.9923075589416855,  0.0000000000000000
  1.0071181195229049,  0.0000000000000000
  1.0219286801041239,  0.0000000000000000
  1.0367392406853431,  0.0000000000000000
  1.0515498012665623,  0.0000000000000000
  1.0663603618477815,  0.0000000000000000
  1.0811709224290007,  0.0000000000000000
  1.0959814830102199,  0.0000000000000000
  1.1107920435914391,  0.0000000000000000
  1.1256026041726583,  0.0000000000000000
  1.1404131647538776,  0.0000000000000000
  1.1552237253350965,  0.0000000000000000
  1.1700342859163158,  0.0000000000000000
  1.1848448464975350,  0.0000000000000000
  1.1996554070787542,  0.0000000000000000
  1.2144659676599734,  0.0000000000000000
  1.2292765282411926,  0.0000000000000000
  1.2440870888224118,  0.0000000000000000
  1.2588976494036310,  0.0000000000000000
  1.2737082099848502,  0.0000000000000000
  1.2885187705660692,  0.0000000000000000
  1.3033293311472884,  0.0000000000000000
  1.3181398917285077,  0.0000000000000000
  1.3329504523097269,  0.0000000000000000
  1.3477610128909461,  0.0000000000000000
  1.3625715734721653,  0.0000000000000000
  1.3773821340533845,  0.0000000000000000
  1.3921926946346037,  0.0000000000000000
  1.4070032552158229,  0.0000000000000000
  1.4218138157970421,  0.0000000000000000
  1.4366243763782611,  0.0000000000000000
  1.4514349369594803,  0.0000000000000000
  1.4662454975406995,  0.0000000000000000
  1.4810560581219188,  0.0000000000000000
  1.4958666187031380,  0.0000000000000000
  1.5106771792843572,  0.0000000000000000
  1.5254877398655764,  0.0000000000000000
  1.5402983004467956,  0.0000000000000000
  1.5551088610280148,  0.0000000000000000
  1.5699194216092338,  0.0000000000000000
  1.5847299821904530,  0.0000000000000000
  1.5995405427716722,  0.0000000000000000
  1.6143511033528914,  0.0000000000000000
  1.6291616639341107,  0.0000000000000000
  1.6439722245153299,  0.0000000000000000
  1.6587827850965491,  0.0000000000000000
  1.6735933456777683,  0.0000000000000000
  1.6884039062589875,  0.0000000000000000
  1.7032144668402065,  0.0000000000000000
  1.7180250274214257,  0.0000000000000000
  1.7328355880026449,  0.0000000000000000
  1.7476461485838641,  0.0000000000000000
  1.7624567091650833,  0.0000000000000000
  1.7772672697463026,  0.0000000000000000
  1.7920778303275218,  0.0000000000000000
  1.8068883909087410,  0.0000000000000000
  1.8216989514899602,  0.0000000000000000
  1.8365095120711792,  0.0000000000000000
  1.8513200726523984,  0.0000000000000000
  1.8661306332336176,  0.0000000000000000
  1.8809411938148368,  0.0000000000000000
  1.8957517543960560,  0.0000000000000000
  1.9105623149772752,  0.0000000000000000
  1.9253728755584945,  0.0000000000000000
  1.9401834361397137,  0.0000000000000000
  1.9549939967209329,  0.0000000000000000
  1.9698045573021519,  0.0000000000000000
  1.9846151178833711,  0.0000000000000000
  1.9994256784645903,  0.0000000000000000
  2.0142362390458097,  0.0000000000000000
  2.0290467996270287,  0.0000000000000000
  2.0438573602082477,  0.0000000000000000
  2.0586679207894671,  0.0000000000000000
  2.0734784813706861,  0.0000000000000000
  2.0882890419519056,  0.0000000000000000
  2.1030996025331246,  0.0000000000000000
  2.1179101631143440,  0.0000000000000000
  2.1327207236955630,  0.0000000000000000
  2.1475312842767824,  0.0000000000000000
  2.1623418448580014,  0.0000000000000000
  2.1771524054392204,  0.0000000000000000
  2.1919629660204398,  0.0000000000000000
  2.2067735266016588,  0.0000000000000000
  2.2215840871828783,  0.0000000000000000
  2.2363946477640972,  0.0000000000000000
  2.2512052083453167,  0.0000000000000000
  2.2660157689265357,  0.0000000000000000
  2.2808263295077551,  0.0000000000000000
  2.2956368900889741,  0.0000000000000000
  2.3104474506701931,  0.0000000000000000
  2.3252580112514125,  0.0000000000000000
  2.3400685718326315,  0.0000000000000000
  2.3548791324138509,  0.0000000000000000
  2.3696896929950699,  0.0000000000000000
  2.3845002535762894,  0.0000000000000000
  2.3993108141575084,  0.0000000000000000
  2.4141213747387278,  0.0000000000000000
  2.4289319353199468,  0.0000000000000000
  2.4437424959011658,  0.0000000000000000
  2.4585530564823852,  0.0000000000000000
  2.4733636170636042,  0.0000000000000000
  2.4881741776448236,  0.0000000000000000
  2.5029847382260426,  0.0000000000000000
  2.5177952988072620,  0.0000000000000000
  2.5326058593884810,  0.0000000000000000
  2.5474164199697005,  0.0000000000000000
  2.5622269805509195,  0.0000000000000000
  2.5770375411321385,  0.0000000000000000
  2.5918481017133579,  0.0000000000000000
  2.6066586622945769,  0.0000000000000000
  2.6214692228757963,  0.0000000000000000
  2.6362797834570153,  0.0000000000000000
  2.6510903440382347,  0.0000000000000000
  2.6659009046194537,  0.0000000000000000
  2.6807114652006732,  0.0000000000000000
  2.6955220257818922,  0.0000000000000000
  2.7103325863631111,  0.0000000000000000
  2.7251431469443306,  0.0000000000000000
  2.7399537075255496,  0.0000000000000000
  2.7547642681067690,  0.0000000000000000
  2.7695748286879880,  0.0000000000000000
  2.7843853892692074,  0.0000000000000000
  2.7991959498504264,  0.0000000000000000
  2.8140065104316458,  0.0000000000000000
  2.8288170710128648,  0.0000000000000000
  2.8436276315940843,  0.0000000000000000
  2.8584381921753033,  0.0000000000000000
  2.8732487527565223,  0.0000000000000000
  2.8880593133377417,  0.0000000000000000
  2.9028698739189607,  0.0000000000000000
  2.9176804345001801,  0.0000000000000000
  2.9324909950813991,  0.0000000000000000
  2.9473015556626185,  0.0000000000000000
  2.9621121162438375,  0.0000000000000000
  2.9769226768250570,  0.0000000000000000
  2.9917332374062759,  0.0000000000000000
  3.0065437979874949,  0.0000000000000000
  3.0213543585687144,  0.0000000000000000
  3.0361649191499334,  0.0000000000000000
  3.0509754797311528,  0.0000000000000000
  3.0657860403123718,  0.0000000000000000
  3.0805966008935912,  0.0000000000000000
  3.0954071614748102,  0.0000000000000000
  3.1102177220560296,  0.0000000000000000
  3.1250282826372486,  0.0000000000000000
  3.1398388432184676,  0.0000000000000000
  3.1546494037996871,  0.0000000000000000
  3.1694599643809060,  0.0000000000000000
  3.1842705249621255,  0.0000000000000000
  3.1990810855433445,  0.0000000000000000
  3.2138916461245639,  0.0000000000000000
  3.2287022067057829,  0.0000000000000000
  3.2435127672870023,  0.0000000000000000
  3.2583233278682213,  0.0000000000000000
  3.2731338884494403,  0.0000000000000000
  3.2879444490306597,  0.0000000000000000
  3.3027550096118787,  0.0000000000000000
  3.3175655701930982,  0.0000000000000000
  3.3323761307743172,  0.0000000000000000
  3.3471866913555366,  0.0000000000000000
  3.3619972519367556,  0.0000000000000000
  3.3768078125179750,  0.0000000000000000
  3.3916183730991940,  0.0000000000000000
  3.4064289336804130,  0.0000000000000000
  3.4212394942616324,  0.0000000000000000
  3.4360500548428514,  0.0000000000000000
  3.4508606154240709,  0.0000000000000000
  3.4656711760052898,  0.0000000000000000
  3.4804817365865093,  0.0000000000000000
  3.4952922971677283,  0.0000000000000000
  3.5101028577489477,  0.0000000000000000
  3.5249134183301667,  0.0000000000000000
  3.5397239789113857,  0.0000000000000000
  3.5545345394926051,  0.0000000000000000
  3.5693451000738241,  0.0000000000000000
  3.5841556606550435,  0.0000000000000000
  3.5989662212362625,  0.0000000000000000
  3.6137767818174820,  0.0000000000000000
  3.6285873423987010,  0.0000000000000000
  3.6433979029799204,  0.0000000000000000
  3.6582084635611394,  0.0000000000000000
  3.6730190241423584,  0.0000000000000000
  3.6878295847235778,  0.0000000000000000
  3.7026401453047968,  0.0000000000000000
  3.7174507058860162,  0.0000000000000000
  3.7322612664672352,  0.0000000000000000
  3.7470718270484547,  0.0000000000000000
  3.7618823876296736,  0.0000000000000000
  3.7766929482108931,  0.0000000000000000
  3.7915035087921121,  0.0000000000000000
  3.8063140693733311,  0.0000000000000000
  3.8211246299545505,  0.0000000000000000
  3.8359351905357695,  0.0000000000000000
  3.8507457511169889,  0.0000000000000000
  3.8655563116982079,  0.0000000000000000
  3.8803668722794273,  0.0000000000000000
  3.8951774328606463,  0.0000000000000000
  3.9099879934418658,  0.0000000000000000
  3.9247985540230848,  0.0000000000000000
  3.9396091146043037,  0.0000000000000000
  3.9544196751855232,  0.0000000000000000
  3.9692302357667422,  0.0000000000000000
  3.9840407963479616,  0.0000000000000000
  3.9988513569291806,  0.0000000000000000
  4.0136619175104000,  0.0000000000000000
  4.0284724780916195,  0.0000000000000000
  4.0432830386728380,  0.0000000000000000
  4.0580935992540574,  0.0000000000000000
  4.0729041598352769,  0.0000000000000000
  4.0877147204164954,  0.0000000000000000
  4.1025252809977149,  0.0000000000000000
  4.1173358415789343,  0.0000000000000000
  4.1321464021601537,  0.0000000000000000
  4.1469569627413723,  0.0000000000000000
  4.1617675233225917,  0.0000000000000000
  4.1765780839038111,  0.0000000000000000
  4.1913886444850306,  0.0000000000000000
  4.2061992050662491,  0.0000000000000000
  4.2210097656474685,  0.0000000000000000
  4.2358203262286880,  0.0000000000000000
  4.2506308868099065,  0.0000000000000000
  4.2654414473911260,  0.0000000000000000
  4.2802520079723454,  0.0000000000000000
  4.2950625685535648,  0.0000000000000000
  4.3098731291347834,  0.0000000000000000
  4.3246836897160028,  0.0000000000000000
  4.3394942502972222,  0.0000000000000000
  4.3543048108784408,  0.0000000000000000
  4.3691153714596602,  0.0000000000000000
  4.3839259320408797,  0.0000000000000000
  4.3987364926220991,  0.0000000000000000
  4.4135470532033176,  0.0000000000000000
  4.4283576137845371,  0.0000000000000000
  4.4431681743657565,  0.0000000000000000
  4.4579787349469759,  0.0000000000000000
  4.4727892955281945,  0.0000000000000000
  4.4875998561094139,  0.0000000000000000
  4.5024104166906334,  0.0000000000000000
  4.5172209772718519,  0.0000000000000000
  4.5320315378530713,  0.0000000000000000
  4.5468420984342908,  0.0000000000000000
  4.5616526590155102,  0.0000000000000000
  4.5764632195967287,  0.0000000000000000
  4.5912737801779482,  0.0000000000000000
  4.6060843407591676,  0.0000000000000000
  4.6208949013403862,  0.0000000000000000
  4.6357054619216056,  0.0000000000000000
  4.6505160225028250,  0.0000000000000000
  4.6653265830840445,  0.0000000000000000
  4.6801371436652630,  0.0000000000000000
  4.6949477042464824,  0.0000000000000000
  4.7097582648277019,  0.0000000000000000
  4.7245688254089213,  0.0000000000000000
  4.7393793859901399,  0.0000000000000000
  4.7541899465713593,  0.0000000000000000
  4.7690005071525787,  0.0000000000000000
  4.7838110677337973,  0.0000000000000000
  4.7986216283150167,  0.0000000000000000
  4.8134321888962361,  0.0000000000000000
  4.8282427494774556,  0.0000000000000000
  4.8430533100586741,  0.0000000000000000
  4.8578638706398936,  0.0000000000000000
  4.8726744312211130,  0.0000000000000000
  4.8874849918023315,  0.0000000000000000
  4.9022955523835510,  0.0000000000000000
  4.9171061129647704,  0.0000000000000000
  4.9319166735459898,  0.0000000000000000
  4.9467272341272084,  0.0000000000000000
  4.9615377947084278,  0.0000000000000000
  4.9763483552896473,  0.0000000000000000
  4.9911589158708667,  0.0000000000000000
  5.0059694764520852,  0.0000000000000000
  5.0207800370333047,  0.0000000000000000
  5.0355905976145241,  0.0000000000000000
  5.0504011581957426,  0.0000000000000000
  5.0652117187769621,  0.0000000000000000
  5.0800222793581815,  0.0000000000000000
  5.0948328399394009,  0.0000000000000000
  5.1096434005206195,  0.0000000000000000
  5.1244539611018389,  0.0000000000000000
  5.1392645216830584,  0.0000000000000000
  5.1540750822642769,  0.0000000000000000
  5.1688856428454963,  0.0000000000000000
  5.1836962034267158,  0.0000000000000000
  5.1985067640079352,  0.0000000000000000
  5.2133173245891538,  0.0000000000000000
  5.2281278851703732,  0.0000000000000000
  5.2429384457515926,  0.0000000000000000
  5.2577490063328121,  0.0000000000000000
  5.2725595669140306,  0.0000000000000000
  5.2873701274952500,  0.0000000000000000
  5.3021806880764695,  0.0000000000000000
  5.3169912486576880,  0.0000000000000000
  5.3318018092389075,  0.0000000000000000
  5.3466123698201269,  0.0000000000000000
  5.3614229304013463,  0.0000000000000000
  5.3762334909825649,  0.0000000000000000
  5.3910440515637843,  0.0000000000000000
  5.4058546121450037,  0.0000000000000000
  5.4206651727262223,  0.0000000000000000
  5.4354757333074417,  0.0000000000000000
  5.4502862938886611,  0.0000000000000000
  5.4650968544698806,  0.0000000000000000
  5.4799074150510991,  0.0000000000000000
  5.4947179756323186,  0.0000000000000000
  5.5095285362135380,  0.0000000000000000
  5.5243390967947574,  0.0000000000000000
  5.5391496573759760,  0.0000000000000000
  5.5539602179571954,  0.0000000000000000
  5.5687707785384148,  0.0000000000000000
  5.5835813391196334,  0.0000000000000000
  5.5983918997008528,  0.0000000000000000
  5.6132024602820723,  0.0000000000000000
  5.6280130208632917,  0.0000000000000000
  5.6428235814445102,  0.0000000000000000
  5.6576341420257297,  0.0000000000000000
  5.6724447026069491,  0.0000000000000000
  5.6872552631881685,  0.0000000000000000
  5.7020658237693871,  0.0000000000000000
  5.7168763843506065,  0.0000000000000000
  5.7316869449318260,  0.0000000000000000
  5.7464975055130445,  0.0000000000000000
  5.7613080660942639,  0.0000000000000000
  5.7761186266754834,  0.0000000000000000
  5.7909291872567028,  0.0000000000000000
  5.8057397478379213,  0.0000000000000000
  5.8205503084191408,  0.0000000000000000
  5.8353608690003602,  0.0000000000000000
  5.8501714295815788,  0.0000000000000000
  5.8649819901627982,  0.0000000000000000
  5.8797925507440176,  0.0000000000000000
  5.8946031113252371,  0.0000000000000000
  5.9094136719064556,  0.0000000000000000
  5.9242242324876750,  0.0000000000000000
  5.9390347930688945,  0.0000000000000000
  5.9538453536501139,  0.0000000000000000
  5.9686559142313325,  0.0000000000000000
  5.9834664748125519,  0.0000000000000000
  5.9982770353937713,  0.0000000000000000
  6.0130875959749899,  0.0000000000000000
  6.0278981565562093,  0.0000000000000000
  6.0427087171374287,  0.0000000000000000
  6.0575192777186482,  0.0000000000000000
  6.0723298382998667,  0.0000000000000000
  6.0871403988810862,  0.0000000000000000
  6.1019509594623056,  0.0000000000000000
  6.1167615200435241,  0.0000000000000000
  6.1315720806247436,  0.0000000000000000
  6.1463826412059630,  0.0000000000000000
  6.1611932017871824,  0.0000000000000000
  6.1760037623684010,  0.0000000000000000
  6.1908143229496204,  0.0000000000000000
  6.2056248835308399,  0.0000000000000000
  0.0000000000000000,  0.0047846889952153
  0.0148105605812192,  0.0047897804322314
  0.0296211211624384,  0.0047992857282801
  0.0444316817436576,  0.0048088000989487
  0.0592422423248768,  0.0048183509935252
  0.0740528029060959,  0.0048279229727533
  0.0888633634873151,  0.0048376088319793
  0.1036739240685343,  0.0048473556669306
  0.1184844846497535,  0.0048572250582941
  0.1332950452309727,  0.0048671084049567
  0.1481056058121919,  0.0048771050399791
  0.1629161663934111,  0.0048871061613954
  0.1777267269746303,  0.0048971157782881
  0.1925372875558495,  0.0049072024410786
  0.2073478481370686,  0.0049173288356281
  0.2221584087182878,  0.0049274987426627
  0.2369689692995070,  0.0049377829568969
  0.2517795298807262,  0.0049481823401124
  0.2665900904619454,  0.0049585769090533
  0.2814006510431646,  0.0049690269218725
  0.2962112116243837,  0.0049795785621326
  0.3110217722056030,  0.0049901358492920
  0.3258323327868221,  0.0050007081454033
  0.3406428933680413,  0.0050113735727156
  0.3554534539492605,  0.0050221192466463
  0.3702640145304797,  0.0050329399916233
  0.3850745751116989,  0.0050437819166591
  0.3998851356929181,  0.0050546771271683
  0.4146956962741373,  0.0050657029062662
  0.4295062568553564,  0.0050767435779807
  0.4443168174365756,  0.0050878375146996
  0.4591273780177948,  0.0050989978427164
  0.4739379385990140,  0.0051101533883417
  0.4887484991802332,  0.0051213706109406
  0.5035590597614524,  0.0051326499787069
  0.5183696203426715,  0.0051439389538563
  0.5331801809238908,  0.0051552739765018
  0.5479907415051100,  0.0051666235691167
  0.5628013020863292,  0.0051779763487782
  0.5776118626675483,  0.0051894107299879
  0.5924224232487675,  0.0052008920958017
  0.6072329838299867,  0.0052123674825807
  0.6220435444112059,  0.0052238514078316
  0.6368541049924251,  0.0052353850651131
  0.6516646655736442,  0.0052469750859501
  0.6664752261548634,  0.0052586255322682
  0.6812857867360826,  0.0052703145750567
  0.6960963473173019,  0.0052820063072729
  0.7109069078985211,  0.0052937300792023
  0.7257174684797402,  0.0053055040179463
  0.7405280290609594,  0.0053173163988198
  0.7553385896421786,  0.0053291212558124
  0.7701491502233978,  0.0053409821544036
  0.7849597108046169,  0.0053528804501103
  0.7997702713858361,  0.0053647938324846
  0.8145808319670553,  0.0053767254775096
  0.8293913925482745,  0.0053886907476871
  0.8442019531294938,  0.0054007082141548
  0.8590125137107129,  0.0054127167547407
  0.8738230742919321,  0.0054247549092316
  0.8886336348731513,  0.0054368346058650
  0.9034441954543705,  0.0054489527044202
  0.9182547560355896,  0.0054611169923778
  0.9330653166168088,  0.0054733106506868
  0.9478758771980280,  0.0054855369318087
  0.9626864377792472,  0.0054978039069168
  0.9774969983604664,  0.0055101484381426
  0.9923075589416855,  0.0055225308614721
  1.0071181195229049,  0.0055349356963113
  1.0219286801041239,  0.0055473375815676
  1.0367392406853431,  0.0055597424990134
  1.0515498012665623,  0.0055721498982660
  1.0663603618477815,  0.0055845663228909
  1.0811709224290007,  0.0055970376892311
  1.0959814830102199,  0.0056095112536543
  1.1107920435914391,  0.0056219765743954
  1.1256026041726583,  0.0056344217575719
  1.1404131647538776,  0.0056468706252224
  1.1552237253350965,  0.0056593480170298
  1.1700342859163158,  0.0056718580788015
  1.1848448464975350,  0.0056843710001748
  1.1996554070787542,  0.0056969179047816
  1.2144659676599734,  0.0057094895748459
  1.2292765282411926,  0.0057220627207289
  1.2440870888224118,  0.0057346373811803
  1.2588976494036310,  0.0057472243639754
  1.2737082099848502,  0.0057598651999791
  1.2885187705660692,  0.0057725402307622
  1.3033293311472884,  0.0057852321786587
  1.3181398917285077,  0.0057979320746749
  1.3329504523097269,  0.0058106390634381
  1.3477610128909461,  0.0058233493427021
  1.3625715734721653,  0.0058360602082710
  1.3773821340533845,  0.0058487772390391
  1.3921926946346037,  0.0058615045867705
  1.4070032552158229,  0.0058742870155941
  1.4218138157970421,  0.0058870739445099
  1.4366243763782611,  0.0058998646237734
  1.4514349369594803,  0.0059126717511990
  1.4662454975406995,  0.0059254993831634
  1.4810560581219188,  0.0059383511921428
  1.4958666187031380,  0.0059512179776576
  1.5106771792843572,  0.0059641107105437
  1.5254877398655764,  0.0059770574609147
  1.5402983004467956,  0.0059900398872060
  1.5551088610280148,  0.0060030350983845
  1.5699194216092338,  0.0060160049833694
  1.5847299821904530,  0.0060289824562631
  1.5995405427716722,  0.0060419677518659
  1.6143511033528914,  0.0060549666809799
  1.6291616639341107,  0.0060679622823344
  1.6439722245153299,  0.0060809432651840
  1.6587827850965491,  0.0060939607932443
  1.6735933456777683,  0.0061069997556699
  1.6884039062589875,  0.0061199997494195
  1.7032144668402065,  0.0061329925430147
  1.7180250274214257,  0.0061459724521684
  1.7328355880026449,  0.0061589681585341
  1.7476461485838641,  0.0061719713616908
  1.7624567091650833,  0.0061849883220102
  1.7772672697463026,  0.0061979984122286
  1.7920778303275218,  0.0062109966777006
  1.8068883909087410,  0.0062240099346348
  1.8216989514899602,  0.0062370300571685
  1.8365095120711792,  0.0062500712782052
  1.8513200726523984,  0.0062631064374104
  1.8661306332336176,  0.0062761285274726
  1.8809411938148368,  0.0062891683677364
  1.8957517543960560,  0.0063022190941339
  1.9105623149772752,  0.0063152827197530
  1.9253728755584945,  0.0063283452052718
  1.9401834361397137,  0.0063413983404826
  1.9549939967209329,  0.0063544654491312
  1.9698045573021519,  0.0063675475942618
  1.9846151178833711,  0.0063806453031003
  1.9994256784645903,  0.0063937469446941
  2.0142362390458097,  0.0064067982671068
  2.0290467996270287,  0.0064198555768308
  2.0438573602082477,  0.0064329280633445
  2.0586679207894671,  0.0064460150501283
  2.0734784813706861,  0.0064591147919983
  2.0882890419519056,  0.0064722489393383
  2.1030996025331246,  0.0064853927268925
  2.1179101631143440,  0.0064985638566922
  2.1327207236955630,  0.0065117325233385
  2.1475312842767824,  0.0065248927358279
  2.1623418448580014,  0.0065380510035993
  2.1771524054392204,  0.0065512069988727
  2.1919629660204398,  0.0065643816959348
  2.2067735266016588,  0.0065775650603233
  2.2215840871828783,  0.0065907450635798
  2.2363946477640972,  0.0066039200212919
  2.2512052083453167,  0.0066170562218117
  2.2660157689265357,  0.0066301737998428
  2.2808263295077551,  0.0066432511028255
  2.2956368900889741,  0.0066563259716615
  2.3104474506701931,  0.0066693985151267
  2.3252580112514125,  0.0066824685502762
  2.3400685718326315,  0.0066955375442542
  2.3548791324138509,  0.0067086091322634
  2.3696896929950699,  0.0067216775242349
  2.3845002535762894,  0.0067347075959834
  2.3993108141575084,  0.0067477385472427
  2.4141213747387278,  0.0067607720183677
  2.4289319353199468,  0.0067738035770966
  2.4437424959011658,  0.0067868326394148
  2.4585530564823852,  0.0067998637552466
  2.4733636170636042,  0.0068128962283016
  2.4881741776448236,  0.0068259253619494
  2.5029847382260426,  0.0068389534620213
  2.5177952988072620,  0.0068519846501767
  2.5326058593884810,  0.0068650130914080
  2.5474164199697005,  0.0068780033509897
  2.5622269805509195,  0.0068910040522005
  2.5770375411321385,  0.0069040414685040
  2.5918481017133579,  0.0069170662681806
  2.6066586622945769,  0.0069300695418897
  2.6214692228757963,  0.0069430744498338
  2.6362797834570153,  0.0069560809223004
  2.6510903440382347,  0.0069691231822694
  2.6659009046194537,  0.0069821850935109
  2.6807114652006732,  0.0069952213011475
  2.6955220257818922,  0.0070082490879001
  2.7103325863631111,  0.0070212797618282
  2.7251431469443306,  0.0070343108504841
  2.7399537075255496,  0.0070473520537757
  2.7547642681067690,  0.0070603851177963
  2.7695748286879880,  0.0070733562533211
  2.7843853892692074,  0.0070863297290117
  2.7991959498504264,  0.0070993109879545
  2.8140065104316458,  0.0071122831666827
  2.8288170710128648,  0.0071252381515729
  2.8436276315940843,  0.0071381603283324
  2.8584381921753033,  0.0071510429361876
  2.8732487527565223,  0.0071639144363299
  2.8880593133377417,  0.0071767772441020
  2.9028698739189607,  0.0071896272434121
  2.9176804345001801,  0.0072024707018143
  2.9324909950813991,  0.0072152940552027
  2.9473015556626185,  0.0072281111609547
  2.9621121162438375,  0.0072409368497622
  2.9769226768250570,  0.0072537639689717
  2.9917332374062759,  0.0072665728769236
  3.0065437979874949,  0.0072793797078140
  3.0213543585687144,  0.0072921615709423
  3.0361649191499334,  0.0073049411465178
  3.0509754797311528,  0.0073177038893437
  3.0657860403123718,  0.0073304625581420
  3.0805966008935912,  0.0073432056325949
  3.0954071614748102,  0.0073559312426956
  3.1102177220560296,  0.0073686136555063
  3.1250282826372486,  0.0073812890735562
  3.1398388432184676,  0.0073939521598416
  3.1546494037996871,  0.0074066096291550
  3.1694599643809060,  0.0074192598310901
  3.1842705249621255,  0.0074319004295921
  3.1990810855433445,  0.0074445318005539
  3.2138916461245639,  0.0074571520353959
  3.2287022067057829,  0.0074697643379323
  3.2435127672870023,  0.0074824157343760
  3.2583233278682213,  0.0074950886882754
  3.2731338884494403,  0.0075077246508636
  3.2879444490306597,  0.0075203435968931
  3.3027550096118787,  0.0075329796019341
  3.3175655701930982,  0.0075456214311065
  3.3323761307743172,  0.0075582247840319
  3.3471866913555366,  0.0075708188784762
  3.3619972519367556,  0.0075834023113151
  3.3768078125179750,  0.0075959841029944
  3.3916183730991940,  0.0076085157543456
  3.4064289336804130,  0.0076210434666460
  3.4212394942616324,  0.0076335651654016
  3.4360500548428514,  0.0076460823174062
  3.4508606154240709,  0.0076584766387866
  3.4656711760052898,  0.0076708699009639
  3.4804817365865093,  0.0076832522724593
  3.4952922971677283,  0.0076956282096948
  3.5101028577489477,  0.0077079631756671
  3.5249134183301667,  0.0077202959526448
  3.5397239789113857,  0.0077326189450571
  3.5545345394926051,  0.0077449310384658
  3.5693451000738241,  0.0077572066253550
  3.5841556606550435,  0.0077694805200567
  3.5989662212362625,  0.0077817499979868
  3.6137767818174820,  0.0077940042327302
  3.6285873423987010,  0.0078062266771329
  3.6433979029799204,  0.0078184342026503
  3.6582084635611394,  0.0078306157115686
  3.6730190241423584,  0.0078427948252864
  3.6878295847235778,  0.0078549705141090
  3.7026401453047968,  0.0078671276052888
  3.7174507058860162,  0.0078792621394601
  3.7322612664672352,  0.0078913738279997
  3.7470718270484547,  0.0079034619518535
  3.7618823876296736,  0.0079155286360834
  3.7766929482108931,  0.0079275759905791
  3.7915035087921121,  0.0079396001798528
  3.8063140693733311,  0.0079516066232158
  3.8211246299545505,  0.0079636367160876
  3.8359351905357695,  0.0079756821471150
  3.8507457511169889,  0.0079877204221121
  3.8655563116982079,  0.0079997541845978
  3.8803668722794273,  0.0080117617293764
  3.8951774328606463,  0.0080237549635208
  3.9099879934418658,  0.0080357206172886
  3.9247985540230848,  0.0080476733230916
  3.9396091146043037,  0.0080596010720166
  3.9544196751855232,  0.0080715188312259
  3.9692302357667422,  0.0080834064661911
  3.9840407963479616,  0.0080952839397437
  3.9988513569291806,  0.0081071297449115
  4.0136619175104000,  0.0081189666901227
  4.0284724780916195,  0.0081307056614104
  4.0432830386728380,  0.0081424223948781
  4.0580935992540574,  0.0081541101851833
  4.0729041598352769,  0.0081657925402541
  4.0877147204164954,  0.0081774442988013
  4.1025252809977149,  0.0081890917072783
  4.1173358415789343,  0.0082007025354346
  4.1321464021601537,  0.0082123097079514
  4.1469569627413723,  0.0082238793004456
  4.1617675233225917,  0.0082354463247994
  4.1765780839038111,  0.0082469799854364
  4.1913886444850306,  0.0082585123613756
  4.2061992050662491,  0.0082700045495938
  4.2210097656474685,  0.0082814959170140
  4.2358203262286880,  0.0082929588851351
  4.2506308868099065,  0.0083044175925915
  4.2654414473911260,  0.0083158058850632
  4.2802520079723454,  0.0083271879040899
  4.2950625685535648,  0.0083385014629329
  4.3098731291347834,  0.0083498149949704