TITLE = "2DRampMesh"
VARIABLES = "X", "Y"
ZONE I=101, J=101, DATAPACKING=POINT
0.000000,	0.000000
0.050000,	0.000000
0.100000,	0.000000
0.150000,	0.000000
0.200000,	0.000000
0.250000,	0.000000
0.300000,	0.000000
0.350000,	0.000000
0.400000,	0.000000
0.450000,	0.000000
0.500000,	0.000000
0.550000,	0.000000
0.600000,	0.000000
0.650000,	0.000000
0.700000,	0.000000
0.750000,	0.000000
0.800000,	0.000000
0.850000,	0.000000
0.900000,	0.000000
0.950000,	0.000000
1.000000,	0.000000
1.050000,	0.000000
1.100000,	0.000000
1.150000,	0.000000
1.200000,	0.000000
1.250000,	0.000000
1.300000,	0.000000
1.350000,	0.000000
1.400000,	0.000000
1.450000,	0.000000
1.500000,	0.000000
1.550000,	0.000000
1.600000,	0.000000
1.650000,	0.000000
1.700000,	0.000000
1.750000,	0.000000
1.800000,	0.000000
1.850000,	0.000000
1.900000,	0.000000
1.950000,	0.000000
2.000000,	0.000000
2.050000,	0.000000
2.100000,	0.000000
2.150000,	0.000000
2.200000,	0.000000
2.250000,	0.000000
2.300000,	0.000000
2.350000,	0.000000
2.400000,	0.000000
2.450000,	0.000000
2.500000,	0.000000
2.550000,	0.000000
2.600000,	0.000000
2.650000,	0.000000
2.700000,	0.000000
2.750000,	0.000000
2.800000,	0.000000
2.850000,	0.000000
2.900000,	0.000000
2.950000,	0.000000
3.000000,	0.000000
3.050000,	0.000000
3.100000,	0.000000
3.150000,	0.000000
3.200000,	0.000000
3.250000,	0.000000
3.300000,	0.000000
3.350000,	0.000000
3.400000,	0.000000
3.450000,	0.000000
3.500000,	0.000000
3.550000,	0.000000
3.600000,	0.000000
3.650000,	0.000000
3.700000,	0.000000
3.750000,	0.000000
3.800000,	0.000000
3.850000,	0.000000
3.900000,	0.000000
3.950000,	0.000000
4.000000,	0.000000
4.050000,	0.000000
4.100000,	0.000000
4.150000,	0.000000
4.200000,	0.000000
4.250000,	0.000000
4.300000,	0.000000
4.350000,	0.000000
4.400000,	0.000000
4.450000,	0.000000
4.500000,	0.000000
4.550000,	0.000000
4.600000,	0.000000
4.650000,	0.000000
4.700000,	0.000000
4.750000,	0.000000
4.800000,	0.000000
4.850000,	0.000000
4.900000,	0.000000
4.950000,	0.000000
5.000000,	0.000000
0.000000,	0.019802
0.050000,	0.019307
0.100000,	0.018812
0.150000,	0.018317
0.200000,	0.017822
0.250000,	0.017327
0.300000,	0.016832
0.350000,	0.016337
0.400000,	0.015842
0.450000,	0.015347
0.500000,	0.014851
0.550000,	0.014356
0.600000,	0.013861
0.650000,	0.013366
0.700000,	0.012871
0.750000,	0.012376
0.800000,	0.011881
0.850000,	0.011386
0.900000,	0.010891
0.950000,	0.010396
1.000000,	0.009901
1.050000,	0.009406
1.100000,	0.008911
1.150000,	0.008416
1.200000,	0.007921
1.250000,	0.007426
1.300000,	0.006931
1.350000,	0.006436
1.400000,	0.005941
1.450000,	0.005446
1.500000,	0.004950
1.550000,	0.005163
1.600000,	0.005375
1.650000,	0.005587
1.700000,	0.005799
1.750000,	0.006011
1.800000,	0.006223
1.850000,	0.006436
1.900000,	0.006648
1.950000,	0.006860
2.000000,	0.007072
2.050000,	0.007284
2.100000,	0.007496
2.150000,	0.007709
2.200000,	0.007921
2.250000,	0.008133
2.300000,	0.008345
2.350000,	0.008557
2.400000,	0.008769
2.450000,	0.008982
2.500000,	0.009194
2.550000,	0.009406
2.600000,	0.009618
2.650000,	0.009830
2.700000,	0.010042
2.750000,	0.010255
2.800000,	0.010467
2.850000,	0.010679
2.900000,	0.010891
2.950000,	0.011103
3.000000,	0.011315
3.050000,	0.011528
3.100000,	0.011740
3.150000,	0.011952
3.200000,	0.012164
3.250000,	0.012376
3.300000,	0.012588
3.350000,	0.012801
3.400000,	0.013013
3.450000,	0.013225
3.500000,	0.013437
3.550000,	0.013649
3.600000,	0.013861
3.650000,	0.014074
3.700000,	0.014286
3.750000,	0.014498
3.800000,	0.014710
3.850000,	0.014922
3.900000,	0.015134
3.950000,	0.015347
4.000000,	0.015559
4.050000,	0.015771
4.100000,	0.015983
4.150000,	0.016195
4.200000,	0.016407
4.250000,	0.016620
4.300000,	0.016832
4.350000,	0.017044
4.400000,	0.017256
4.450000,	0.017468
4.500000,	0.017680
4.550000,	0.017893
4.600000,	0.018105
4.650000,	0.018317
4.700000,	0.018529
4.750000,	0.018741
4.800000,	0.018953
4.850000,	0.019165
4.900000,	0.019378
4.950000,	0.019590
5.000000,	0.019802
0.000000,	0.039604
0.050000,	0.038614
0.100000,	0.037624
0.150000,	0.036634
0.200000,	0.035644
0.250000,	0.034653
0.300000,	0.033663
0.350000,	0.032673
0.400000,	0.031683
0.450000,	0.030693
0.500000,	0.029703
0.550000,	0.028713
0.600000,	0.027723
0.650000,	0.026733
0.700000,	0.025743
0.750000,	0.024752
0.800000,	0.023762
0.850000,	0.022772
0.900000,	0.021782
0.950000,	0.020792
1.000000,	0.019802
1.050000,	0.018812
1.100000,	0.017822
1.150000,	0.016832
1.200000,	0.015842
1.250000,	0.014851
1.300000,	0.013861
1.350000,	0.012871
1.400000,	0.011881
1.450000,	0.010891
1.500000,	0.009901
1.550000,	0.010325
1.600000,	0.010750
1.650000,	0.011174
1.700000,	0.011598
1.750000,	0.012023
1.800000,	0.012447
1.850000,	0.012871
1.900000,	0.013296
1.950000,	0.013720
2.000000,	0.014144
2.050000,	0.014569
2.100000,	0.014993
2.150000,	0.015417
2.200000,	0.015842
2.250000,	0.016266
2.300000,	0.016690
2.350000,	0.017115
2.400000,	0.017539
2.450000,	0.017963
2.500000,	0.018388
2.550000,	0.018812
2.600000,	0.019236
2.650000,	0.019661
2.700000,	0.020085
2.750000,	0.020509
2.800000,	0.020934
2.850000,	0.021358
2.900000,	0.021782
2.950000,	0.022207
3.000000,	0.022631
3.050000,	0.023055
3.100000,	0.023479
3.150000,	0.023904
3.200000,	0.024328
3.250000,	0.024752
3.300000,	0.025177
3.350000,	0.025601
3.400000,	0.026025
3.450000,	0.026450
3.500000,	0.026874
3.550000,	0.027298
3.600000,	0.027723
3.650000,	0.028147
3.700000,	0.028571
3.750000,	0.028996
3.800000,	0.029420
3.850000,	0.029844
3.900000,	0.030269
3.950000,	0.030693
4.000000,	0.031117
4.050000,	0.031542
4.100000,	0.031966
4.150000,	0.032390
4.200000,	0.032815
4.250000,	0.033239
4.300000,	0.033663
4.350000,	0.034088
4.400000,	0.034512
4.450000,	0.034936
4.500000,	0.035361
4.550000,	0.035785
4.600000,	0.036209
4.650000,	0.036634
4.700000,	0.037058
4.750000,	0.037482
4.800000,	0.037907
4.850000,	0.038331
4.900000,	0.038755
4.950000,	0.039180
5.000000,	0.039604
0.000000,	0.059406
0.050000,	0.057921
0.100000,	0.056436
0.150000,	0.054950
0.200000,	0.053465
0.250000,	0.051980
0.300000,	0.050495
0.350000,	0.049010
0.400000,	0.047525
0.450000,	0.046040
0.500000,	0.044554
0.550000,	0.043069
0.600000,	0.041584
0.650000,	0.040099
0.700000,	0.038614
0.750000,	0.037129
0.800000,	0.035644
0.850000,	0.034158
0.900000,	0.032673
0.950000,	0.031188
1.000000,	0.029703
1.050000,	0.028218
1.100000,	0.026733
1.150000,	0.025248
1.200000,	0.023762
1.250000,	0.022277
1.300000,	0.020792
1.350000,	0.019307
1.400000,	0.017822
1.450000,	0.016337
1.500000,	0.014851
1.550000,	0.015488
1.600000,	0.016124
1.650000,	0.016761
1.700000,	0.017397
1.750000,	0.018034
1.800000,	0.018670
1.850000,	0.019307
1.900000,	0.019943
1.950000,	0.020580
2.000000,	0.021216
2.050000,	0.021853
2.100000,	0.022489
2.150000,	0.023126
2.200000,	0.023762
2.250000,	0.024399
2.300000,	0.025035
2.350000,	0.025672
2.400000,	0.026308
2.450000,	0.026945
2.500000,	0.027581
2.550000,	0.028218
2.600000,	0.028854
2.650000,	0.029491
2.700000,	0.030127
2.750000,	0.030764
2.800000,	0.031400
2.850000,	0.032037
2.900000,	0.032673
2.950000,	0.033310
3.000000,	0.033946
3.050000,	0.034583
3.100000,	0.035219
3.150000,	0.035856
3.200000,	0.036492
3.250000,	0.037129
3.300000,	0.037765
3.350000,	0.038402
3.400000,	0.039038
3.450000,	0.039675
3.500000,	0.040311
3.550000,	0.040948
3.600000,	0.041584
3.650000,	0.042221
3.700000,	0.042857
3.750000,	0.043494
3.800000,	0.044130
3.850000,	0.044767
3.900000,	0.045403
3.950000,	0.046040
4.000000,	0.046676
4.050000,	0.047313
4.100000,	0.047949
4.150000,	0.048586
4.200000,	0.049222
4.250000,	0.049859
4.300000,	0.050495
4.350000,	0.051132
4.400000,	0.051768
4.450000,	0.052405
4.500000,	0.053041
4.550000,	0.053678
4.600000,	0.054314
4.650000,	0.054950
4.700000,	0.055587
4.750000,	0.056223
4.800000,	0.056860
4.850000,	0.057496
4.900000,	0.058133
4.950000,	0.058769
5.000000,	0.059406
0.000000,	0.079208
0.050000,	0.077228
0.100000,	0.075248
0.150000,	0.073267
0.200000,	0.071287
0.250000,	0.069307
0.300000,	0.067327
0.350000,	0.065347
0.400000,	0.063366
0.450000,	0.061386
0.500000,	0.059406
0.550000,	0.057426
0.600000,	0.055446
0.650000,	0.053465
0.700000,	0.051485
0.750000,	0.049505
0.800000,	0.047525
0.850000,	0.045545
0.900000,	0.043564
0.950000,	0.041584
1.000000,	0.039604
1.050000,	0.037624
1.100000,	0.035644
1.150000,	0.033663
1.200000,	0.031683
1.250000,	0.029703
1.300000,	0.027723
1.350000,	0.025743
1.400000,	0.023762
1.450000,	0.021782
1.500000,	0.019802
1.550000,	0.020651
1.600000,	0.021499
1.650000,	0.022348
1.700000,	0.023197
1.750000,	0.024045
1.800000,	0.024894
1.850000,	0.025743
1.900000,	0.026591
1.950000,	0.027440
2.000000,	0.028289
2.050000,	0.029137
2.100000,	0.029986
2.150000,	0.030835
2.200000,	0.031683
2.250000,	0.032532
2.300000,	0.033380
2.350000,	0.034229
2.400000,	0.035078
2.450000,	0.035926
2.500000,	0.036775
2.550000,	0.037624
2.600000,	0.038472
2.650000,	0.039321
2.700000,	0.040170
2.750000,	0.041018
2.800000,	0.041867
2.850000,	0.042716
2.900000,	0.043564
2.950000,	0.044413
3.000000,	0.045262
3.050000,	0.046110
3.100000,	0.046959
3.150000,	0.047808
3.200000,	0.048656
3.250000,	0.049505
3.300000,	0.050354
3.350000,	0.051202
3.400000,	0.052051
3.450000,	0.052900
3.500000,	0.053748
3.550000,	0.054597
3.600000,	0.055446
3.650000,	0.056294
3.700000,	0.057143
3.750000,	0.057992
3.800000,	0.058840
3.850000,	0.059689
3.900000,	0.060537
3.950000,	0.061386
4.000000,	0.062235
4.050000,	0.063083
4.100000,	0.063932
4.150000,	0.064781
4.200000,	0.065629
4.250000,	0.066478
4.300000,	0.067327
4.350000,	0.068175
4.400000,	0.069024
4.450000,	0.069873
4.500000,	0.070721
4.550000,	0.071570
4.600000,	0.072419
4.650000,	0.073267
4.700000,	0.074116
4.750000,	0.074965
4.800000,	0.075813
4.850000,	0.076662
4.900000,	0.077511
4.950000,	0.078359
5.000000,	0.079208
0.000000,	0.099010
0.050000,	0.096535
0.100000,	0.094059
0.150000,	0.091584
0.200000,	0.089109
0.250000,	0.086634
0.300000,	0.084158
0.350000,	0.081683
0.400000,	0.079208
0.450000,	0.076733
0.500000,	0.074257
0.550000,	0.071782
0.600000,	0.069307
0.650000,	0.066832
0.700000,	0.064356
0.750000,	0.061881
0.800000,	0.059406
0.850000,	0.056931
0.900000,	0.054455
0.950000,	0.051980
1.000000,	0.049505
1.050000,	0.047030
1.100000,	0.044554
1.150000,	0.042079
1.200000,	0.039604
1.250000,	0.037129
1.300000,	0.034653
1.350000,	0.032178
1.400000,	0.029703
1.450000,	0.027228
1.500000,	0.024752
1.550000,	0.025813
1.600000,	0.026874
1.650000,	0.027935
1.700000,	0.028996
1.750000,	0.030057
1.800000,	0.031117
1.850000,	0.032178
1.900000,	0.033239
1.950000,	0.034300
2.000000,	0.035361
2.050000,	0.036421
2.100000,	0.037482
2.150000,	0.038543
2.200000,	0.039604
2.250000,	0.040665
2.300000,	0.041726
2.350000,	0.042786
2.400000,	0.043847
2.450000,	0.044908
2.500000,	0.045969
2.550000,	0.047030
2.600000,	0.048091
2.650000,	0.049151
2.700000,	0.050212
2.750000,	0.051273
2.800000,	0.052334
2.850000,	0.053395
2.900000,	0.054455
2.950000,	0.055516
3.000000,	0.056577
3.050000,	0.057638
3.100000,	0.058699
3.150000,	0.059760
3.200000,	0.060820
3.250000,	0.061881
3.300000,	0.062942
3.350000,	0.064003
3.400000,	0.065064
3.450000,	0.066124
3.500000,	0.067185
3.550000,	0.068246
3.600000,	0.069307
3.650000,	0.070368
3.700000,	0.071429
3.750000,	0.072489
3.800000,	0.073550
3.850000,	0.074611
3.900000,	0.075672
3.950000,	0.076733
4.000000,	0.077793
4.050000,	0.078854
4.100000,	0.079915
4.150000,	0.080976
4.200000,	0.082037
4.250000,	0.083098
4.300000,	0.084158
4.350000,	0.085219
4.400000,	0.086280
4.450000,	0.087341
4.500000,	0.088402
4.550000,	0.089463
4.600000,	0.090523
4.650000,	0.091584
4.700000,	0.092645
4.750000,	0.093706
4.800000,	0.094767
4.850000,	0.095827
4.900000,	0.096888
4.950000,	0.097949
5.000000,	0.099010
0.000000,	0.118812
0.050000,	0.115842
0.100000,	0.112871
0.150000,	0.109901
0.200000,	0.106931
0.250000,	0.103960
0.300000,	0.100990
0.350000,	0.098020
0.400000,	0.095050
0.450000,	0.092079
0.500000,	0.089109
0.550000,	0.086139
0.600000,	0.083168
0.650000,	0.080198
0.700000,	0.077228
0.750000,	0.074257
0.800000,	0.071287
0.850000,	0.068317
0.900000,	0.065347
0.950000,	0.062376
1.000000,	0.059406
1.050000,	0.056436
1.100000,	0.053465
1.150000,	0.050495
1.200000,	0.047525
1.250000,	0.044554
1.300000,	0.041584
1.350000,	0.038614
1.400000,	0.035644
1.450000,	0.032673
1.500000,	0.029703
1.550000,	0.030976
1.600000,	0.032249
1.650000,	0.033522
1.700000,	0.034795
1.750000,	0.036068
1.800000,	0.037341
1.850000,	0.038614
1.900000,	0.039887
1.950000,	0.041160
2.000000,	0.042433
2.050000,	0.043706
2.100000,	0.044979
2.150000,	0.046252
2.200000,	0.047525
2.250000,	0.048798
2.300000,	0.050071
2.350000,	0.051344
2.400000,	0.052617
2.450000,	0.053890
2.500000,	0.055163
2.550000,	0.056436
2.600000,	0.057709
2.650000,	0.058982
2.700000,	0.060255
2.750000,	0.061528
2.800000,	0.062801
2.850000,	0.064074
2.900000,	0.065347
2.950000,	0.066620
3.000000,	0.067893
3.050000,	0.069165
3.100000,	0.070438
3.150000,	0.071711
3.200000,	0.072984
3.250000,	0.074257
3.300000,	0.075530
3.350000,	0.076803
3.400000,	0.078076
3.450000,	0.079349
3.500000,	0.080622
3.550000,	0.081895
3.600000,	0.083168
3.650000,	0.084441
3.700000,	0.085714
3.750000,	0.086987
3.800000,	0.088260
3.850000,	0.089533
3.900000,	0.090806
3.950000,	0.092079
4.000000,	0.093352
4.050000,	0.094625
4.100000,	0.095898
4.150000,	0.097171
4.200000,	0.098444
4.250000,	0.099717
4.300000,	0.100990
4.350000,	0.102263
4.400000,	0.103536
4.450000,	0.104809
4.500000,	0.106082
4.550000,	0.107355
4.600000,	0.108628
4.650000,	0.109901
4.700000,	0.111174
4.750000,	0.112447
4.800000,	0.113720
4.850000,	0.114993
4.900000,	0.116266
4.950000,	0.117539
5.000000,	0.118812
0.000000,	0.138614
0.050000,	0.135149
0.100000,	0.131683
0.150000,	0.128218
0.200000,	0.124752
0.250000,	0.121287
0.300000,	0.117822
0.350000,	0.114356
0.400000,	0.110891
0.450000,	0.107426
0.500000,	0.103960
0.550000,	0.100495
0.600000,	0.097030
0.650000,	0.093564
0.700000,	0.090099
0.750000,	0.086634
0.800000,	0.083168
0.850000,	0.079703
0.900000,	0.076238
0.950000,	0.072772
1.000000,	0.069307
1.050000,	0.065842
1.100000,	0.062376
1.150000,	0.058911
1.200000,	0.055446
1.250000,	0.051980
1.300000,	0.048515
1.350000,	0.045050
1.400000,	0.041584
1.450000,	0.038119
1.500000,	0.034653
1.550000,	0.036139
1.600000,	0.037624
1.650000,	0.039109
1.700000,	0.040594
1.750000,	0.042079
1.800000,	0.043564
1.850000,	0.045050
1.900000,	0.046535
1.950000,	0.048020
2.000000,	0.049505
2.050000,	0.050990
2.100000,	0.052475
2.150000,	0.053960
2.200000,	0.055446
2.250000,	0.056931
2.300000,	0.058416
2.350000,	0.059901
2.400000,	0.061386
2.450000,	0.062871
2.500000,	0.064356
2.550000,	0.065842
2.600000,	0.067327
2.650000,	0.068812
2.700000,	0.070297
2.750000,	0.071782
2.800000,	0.073267
2.850000,	0.074752
2.900000,	0.076238
2.950000,	0.077723
3.000000,	0.079208
3.050000,	0.080693
3.100000,	0.082178
3.150000,	0.083663
3.200000,	0.085149
3.250000,	0.086634
3.300000,	0.088119
3.350000,	0.089604
3.400000,	0.091089
3.450000,	0.092574
3.500000,	0.094059
3.550000,	0.095545
3.600000,	0.097030
3.650000,	0.098515
3.700000,	0.100000
3.750000,	0.101485
3.800000,	0.102970
3.850000,	0.104455
3.900000,	0.105941
3.950000,	0.107426
4.000000,	0.108911
4.050000,	0.110396
4.100000,	0.111881
4.150000,	0.113366
4.200000,	0.114851
4.250000,	0.116337
4.300000,	0.117822
4.350000,	0.119307
4.400000,	0.120792
4.450000,	0.122277
4.500000,	0.123762
4.550000,	0.125248
4.600000,	0.126733
4.650000,	0.128218
4.700000,	0.129703
4.750000,	0.131188
4.800000,	0.132673
4.850000,	0.134158
4.900000,	0.135644
4.950000,	0.137129
5.000000,	0.138614
0.000000,	0.158416
0.050000,	0.154455
0.100000,	0.150495
0.150000,	0.146535
0.200000,	0.142574
0.250000,	0.138614
0.300000,	0.134653
0.350000,	0.130693
0.400000,	0.126733
0.450000,	0.122772
0.500000,	0.118812
0.550000,	0.114851
0.600000,	0.110891
0.650000,	0.106931
0.700000,	0.102970
0.750000,	0.099010
0.800000,	0.095050
0.850000,	0.091089
0.900000,	0.087129
0.950000,	0.083168
1.000000,	0.079208
1.050000,	0.075248
1.100000,	0.071287
1.150000,	0.067327
1.200000,	0.063366
1.250000,	0.059406
1.300000,	0.055446
1.350000,	0.051485
1.400000,	0.047525
1.450000,	0.043564
1.500000,	0.039604
1.550000,	0.041301
1.600000,	0.042999
1.650000,	0.044696
1.700000,	0.046393
1.750000,	0.048091
1.800000,	0.049788
1.850000,	0.051485
1.900000,	0.053182
1.950000,	0.054880
2.000000,	0.056577
2.050000,	0.058274
2.100000,	0.059972
2.150000,	0.061669
2.200000,	0.063366
2.250000,	0.065064
2.300000,	0.066761
2.350000,	0.068458
2.400000,	0.070156
2.450000,	0.071853
2.500000,	0.073550
2.550000,	0.075248
2.600000,	0.076945
2.650000,	0.078642
2.700000,	0.080339
2.750000,	0.082037
2.800000,	0.083734
2.850000,	0.085431
2.900000,	0.087129
2.950000,	0.088826
3.000000,	0.090523
3.050000,	0.092221
3.100000,	0.093918
3.150000,	0.095615
3.200000,	0.097313
3.250000,	0.099010
3.300000,	0.100707
3.350000,	0.102405
3.400000,	0.104102
3.450000,	0.105799
3.500000,	0.107496
3.550000,	0.109194
3.600000,	0.110891
3.650000,	0.112588
3.700000,	0.114286
3.750000,	0.115983
3.800000,	0.117680
3.850000,	0.119378
3.900000,	0.121075
3.950000,	0.122772
4.000000,	0.124470
4.050000,	0.126167
4.100000,	0.127864
4.150000,	0.129562
4.200000,	0.131259
4.250000,	0.132956
4.300000,	0.134653
4.350000,	0.136351
4.400000,	0.138048
4.450000,	0.139745
4.500000,	0.141443
4.550000,	0.143140
4.600000,	0.144837
4.650000,	0.146535
4.700000,	0.148232
4.750000,	0.149929
4.800000,	0.151627
4.850000,	0.153324
4.900000,	0.155021
4.950000,	0.156719
5.000000,	0.158416
0.000000,	0.178218
0.050000,	0.173762
0.100000,	0.169307
0.150000,	0.164851
0.200000,	0.160396
0.250000,	0.155941
0.300000,	0.151485
0.350000,	0.147030
0.400000,	0.142574
0.450000,	0.138119
0.500000,	0.133663
0.550000,	0.129208
0.600000,	0.124752
0.650000,	0.120297
0.700000,	0.115842
0.750000,	0.111386
0.800000,	0.106931
0.850000,	0.102475
0.900000,	0.098020
0.950000,	0.093564
1.000000,	0.089109
1.050000,	0.084653
1.100000,	0.080198
1.150000,	0.075743
1.200000,	0.071287
1.250000,	0.066832
1.300000,	0.062376
1.350000,	0.057921
1.400000,	0.053465
1.450000,	0.049010
1.500000,	0.044554
1.550000,	0.046464
1.600000,	0.048373
1.650000,	0.050283
1.700000,	0.052192
1.750000,	0.054102
1.800000,	0.056011
1.850000,	0.057921
1.900000,	0.059830
1.950000,	0.061740
2.000000,	0.063649
2.050000,	0.065559
2.100000,	0.067468
2.150000,	0.069378
2.200000,	0.071287
2.250000,	0.073197
2.300000,	0.075106
2.350000,	0.077016
2.400000,	0.078925
2.450000,	0.080835
2.500000,	0.082744
2.550000,	0.084653
2.600000,	0.086563
2.650000,	0.088472
2.700000,	0.090382
2.750000,	0.092291
2.800000,	0.094201
2.850000,	0.096110
2.900000,	0.098020
2.950000,	0.099929
3.000000,	0.101839
3.050000,	0.103748
3.100000,	0.105658
3.150000,	0.107567
3.200000,	0.109477
3.250000,	0.111386
3.300000,	0.113296
3.350000,	0.115205
3.400000,	0.117115
3.450000,	0.119024
3.500000,	0.120934
3.550000,	0.122843
3.600000,	0.124752
3.650000,	0.126662
3.700000,	0.128571
3.750000,	0.130481
3.800000,	0.132390
3.850000,	0.134300
3.900000,	0.136209
3.950000,	0.138119
4.000000,	0.140028
4.050000,	0.141938
4.100000,	0.143847
4.150000,	0.145757
4.200000,	0.147666
4.250000,	0.149576
4.300000,	0.151485
4.350000,	0.153395
4.400000,	0.155304
4.450000,	0.157214
4.500000,	0.159123
4.550000,	0.161033
4.600000,	0.162942
4.650000,	0.164851
4.700000,	0.166761
4.750000,	0.168670
4.800000,	0.170580
4.850000,	0.172489
4.900000,	0.174399
4.950000,	0.176308
5.000000,	0.178218
0.000000,	0.198020
0.050000,	0.193069
0.100000,	0.188119
0.150000,	0.183168
0.200000,	0.178218
0.250000,	0.173267
0.300000,	0.168317
0.350000,	0.163366
0.400000,	0.158416
0.450000,	0.153465
0.500000,	0.148515
0.550000,	0.143564
0.600000,	0.138614
0.650000,	0.133663
0.700000,	0.128713
0.750000,	0.123762
0.800000,	0.118812
0.850000,	0.113861
0.900000,	0.108911
0.950000,	0.103960
1.000000,	0.099010
1.050000,	0.094059
1.100000,	0.089109
1.150000,	0.084158
1.200000,	0.079208
1.250000,	0.074257
1.300000,	0.069307
1.350000,	0.064356
1.400000,	0.059406
1.450000,	0.054455
1.500000,	0.049505
1.550000,	0.051627
1.600000,	0.053748
1.650000,	0.055870
1.700000,	0.057992
1.750000,	0.060113
1.800000,	0.062235
1.850000,	0.064356
1.900000,	0.066478
1.950000,	0.068600
2.000000,	0.070721
2.050000,	0.072843
2.100000,	0.074965
2.150000,	0.077086
2.200000,	0.079208
2.250000,	0.081330
2.300000,	0.083451
2.350000,	0.085573
2.400000,	0.087694
2.450000,	0.089816
2.500000,	0.091938
2.550000,	0.094059
2.600000,	0.096181
2.650000,	0.098303
2.700000,	0.100424
2.750000,	0.102546
2.800000,	0.104668
2.850000,	0.106789
2.900000,	0.108911
2.950000,	0.111033
3.000000,	0.113154
3.050000,	0.115276
3.100000,	0.117397
3.150000,	0.119519
3.200000,	0.121641
3.250000,	0.123762
3.300000,	0.125884
3.350000,	0.128006
3.400000,	0.130127
3.450000,	0.132249
3.500000,	0.134371
3.550000,	0.136492
3.600000,	0.138614
3.650000,	0.140736
3.700000,	0.142857
3.750000,	0.144979
3.800000,	0.147100
3.850000,	0.149222
3.900000,	0.151344
3.950000,	0.153465
4.000000,	0.155587
4.050000,	0.157709
4.100000,	0.159830
4.150000,	0.161952
4.200000,	0.164074
4.250000,	0.166195
4.300000,	0.168317
4.350000,	0.170438
4.400000,	0.172560
4.450000,	0.174682
4.500000,	0.176803
4.550000,	0.178925
4.600000,	0.181047
4.650000,	0.183168
4.700000,	0.185290
4.750000,	0.187412
4.800000,	0.189533
4.850000,	0.191655
4.900000,	0.193777
4.950000,	0.195898
5.000000,	0.198020
0.000000,	0.217822
0.050000,	0.212376
0.100000,	0.206931
0.150000,	0.201485
0.200000,	0.196040
0.250000,	0.190594
0.300000,	0.185149
0.350000,	0.179703
0.400000,	0.174257
0.450000,	0.168812
0.500000,	0.163366
0.550000,	0.157921
0.600000,	0.152475
0.650000,	0.147030
0.700000,	0.141584
0.750000,	0.136139
0.800000,	0.130693
0.850000,	0.125248
0.900000,	0.119802
0.950000,	0.114356
1.000000,	0.108911
1.050000,	0.103465
1.100000,	0.098020
1.150000,	0.092574
1.200000,	0.087129
1.250000,	0.081683
1.300000,	0.076238
1.350000,	0.070792
1.400000,	0.065347
1.450000,	0.059901
1.500000,	0.054455
1.550000,	0.056789
1.600000,	0.059123
1.650000,	0.061457
1.700000,	0.063791
1.750000,	0.066124
1.800000,	0.068458
1.850000,	0.070792
1.900000,	0.073126
1.950000,	0.075460
2.000000,	0.077793
2.050000,	0.080127
2.100000,	0.082461
2.150000,	0.084795
2.200000,	0.087129
2.250000,	0.089463
2.300000,	0.091796
2.350000,	0.094130
2.400000,	0.096464
2.450000,	0.098798
2.500000,	0.101132
2.550000,	0.103465
2.600000,	0.105799
2.650000,	0.108133
2.700000,	0.110467
2.750000,	0.112801
2.800000,	0.115134
2.850000,	0.117468
2.900000,	0.119802
2.950000,	0.122136
3.000000,	0.124470
3.050000,	0.126803
3.100000,	0.129137
3.150000,	0.131471
3.200000,	0.133805
3.250000,	0.136139
3.300000,	0.138472
3.350000,	0.140806
3.400000,	0.143140
3.450000,	0.145474
3.500000,	0.147808
3.550000,	0.150141
3.600000,	0.152475
3.650000,	0.154809
3.700000,	0.157143
3.750000,	0.159477
3.800000,	0.161810
3.850000,	0.164144
3.900000,	0.166478
3.950000,	0.168812
4.000000,	0.171146
4.050000,	0.173479
4.100000,	0.175813
4.150000,	0.178147
4.200000,	0.180481
4.250000,	0.182815
4.300000,	0.185149
4.350000,	0.187482
4.400000,	0.189816
4.450000,	0.192150
4.500000,	0.194484
4.550000,	0.196818
4.600000,	0.199151
4.650000,	0.201485
4.700000,	0.203819
4.750000,	0.206153
4.800000,	0.208487
4.850000,	0.210820
4.900000,	0.213154
4.950000,	0.215488
5.000000,	0.217822
0.000000,	0.237624
0.050000,	0.231683
0.100000,	0.225743
0.150000,	0.219802
0.200000,	0.213861
0.250000,	0.207921
0.300000,	0.201980
0.350000,	0.196040
0.400000,	0.190099
0.450000,	0.184158
0.500000,	0.178218
0.550000,	0.172277
0.600000,	0.166337
0.650000,	0.160396
0.700000,	0.154455
0.750000,	0.148515
0.800000,	0.142574
0.850000,	0.136634
0.900000,	0.130693
0.950000,	0.124752
1.000000,	0.118812
1.050000,	0.112871
1.100000,	0.106931
1.150000,	0.100990
1.200000,	0.095050
1.250000,	0.089109
1.300000,	0.083168
1.350000,	0.077228
1.400000,	0.071287
1.450000,	0.065347
1.500000,	0.059406
1.550000,	0.061952
1.600000,	0.064498
1.650000,	0.067044
1.700000,	0.069590
1.750000,	0.072136
1.800000,	0.074682
1.850000,	0.077228
1.900000,	0.079774
1.950000,	0.082320
2.000000,	0.084866
2.050000,	0.087412
2.100000,	0.089958
2.150000,	0.092504
2.200000,	0.095050
2.250000,	0.097595
2.300000,	0.100141
2.350000,	0.102687
2.400000,	0.105233
2.450000,	0.107779
2.500000,	0.110325
2.550000,	0.112871
2.600000,	0.115417
2.650000,	0.117963
2.700000,	0.120509
2.750000,	0.123055
2.800000,	0.125601
2.850000,	0.128147
2.900000,	0.130693
2.950000,	0.133239
3.000000,	0.135785
3.050000,	0.138331
3.100000,	0.140877
3.150000,	0.143423
3.200000,	0.145969
3.250000,	0.148515
3.300000,	0.151061
3.350000,	0.153607
3.400000,	0.156153
3.450000,	0.158699
3.500000,	0.161245
3.550000,	0.163791
3.600000,	0.166337
3.650000,	0.168883
3.700000,	0.171429
3.750000,	0.173975
3.800000,	0.176521
3.850000,	0.179066
3.900000,	0.181612
3.950000,	0.184158
4.000000,	0.186704
4.050000,	0.189250
4.100000,	0.191796
4.150000,	0.194342
4.200000,	0.196888
4.250000,	0.199434
4.300000,	0.201980
4.350000,	0.204526
4.400000,	0.207072
4.450000,	0.209618
4.500000,	0.212164
4.550000,	0.214710
4.600000,	0.217256
4.650000,	0.219802
4.700000,	0.222348
4.750000,	0.224894
4.800000,	0.227440
4.850000,	0.229986
4.900000,	0.232532
4.950000,	0.235078
5.000000,	0.237624
0.000000,	0.257426
0.050000,	0.250990
0.100000,	0.244554
0.150000,	0.238119
0.200000,	0.231683
0.250000,	0.225248
0.300000,	0.218812
0.350000,	0.212376
0.400000,	0.205941
0.450000,	0.199505
0.500000,	0.193069
0.550000,	0.186634
0.600000,	0.180198
0.650000,	0.173762
0.700000,	0.167327
0.750000,	0.160891
0.800000,	0.154455
0.850000,	0.148020
0.900000,	0.141584
0.950000,	0.135149
1.000000,	0.128713
1.050000,	0.122277
1.100000,	0.115842
1.150000,	0.109406
1.200000,	0.102970
1.250000,	0.096535
1.300000,	0.090099
1.350000,	0.083663
1.400000,	0.077228
1.450000,	0.070792
1.500000,	0.064356
1.550000,	0.067115
1.600000,	0.069873
1.650000,	0.072631
1.700000,	0.075389
1.750000,	0.078147
1.800000,	0.080905
1.850000,	0.083663
1.900000,	0.086421
1.950000,	0.089180
2.000000,	0.091938
2.050000,	0.094696
2.100000,	0.097454
2.150000,	0.100212
2.200000,	0.102970
2.250000,	0.105728
2.300000,	0.108487
2.350000,	0.111245
2.400000,	0.114003
2.450000,	0.116761
2.500000,	0.119519
2.550000,	0.122277
2.600000,	0.125035
2.650000,	0.127793
2.700000,	0.130552
2.750000,	0.133310
2.800000,	0.136068
2.850000,	0.138826
2.900000,	0.141584
2.950000,	0.144342
3.000000,	0.147100
3.050000,	0.149859
3.100000,	0.152617
3.150000,	0.155375
3.200000,	0.158133
3.250000,	0.160891
3.300000,	0.163649
3.350000,	0.166407
3.400000,	0.169165
3.450000,	0.171924
3.500000,	0.174682
3.550000,	0.177440
3.600000,	0.180198
3.650000,	0.182956
3.700000,	0.185714
3.750000,	0.188472
3.800000,	0.191231
3.850000,	0.193989
3.900000,	0.196747
3.950000,	0.199505
4.000000,	0.202263
4.050000,	0.205021
4.100000,	0.207779
4.150000,	0.210537
4.200000,	0.213296
4.250000,	0.216054
4.300000,	0.218812
4.350000,	0.221570
4.400000,	0.224328
4.450000,	0.227086
4.500000,	0.229844
4.550000,	0.232603
4.600000,	0.235361
4.650000,	0.238119
4.700000,	0.240877
4.750000,	0.243635
4.800000,	0.246393
4.850000,	0.249151
4.900000,	0.251909
4.950000,	0.254668
5.000000,	0.257426
0.000000,	0.277228
0.050000,	0.270297
0.100000,	0.263366
0.150000,	0.256436
0.200000,	0.249505
0.250000,	0.242574
0.300000,	0.235644
0.350000,	0.228713
0.400000,	0.221782
0.450000,	0.214851
0.500000,	0.207921
0.550000,	0.200990
0.600000,	0.194059
0.650000,	0.187129
0.700000,	0.180198
0.750000,	0.173267
0.800000,	0.166337
0.850000,	0.159406
0.900000,	0.152475
0.950000,	0.145545
1.000000,	0.138614
1.050000,	0.131683
1.100000,	0.124752
1.150000,	0.117822
1.200000,	0.110891
1.250000,	0.103960
1.300000,	0.097030
1.350000,	0.090099
1.400000,	0.083168
1.450000,	0.076238
1.500000,	0.069307
1.550000,	0.072277
1.600000,	0.075248
1.650000,	0.078218
1.700000,	0.081188
1.750000,	0.084158
1.800000,	0.087129
1.850000,	0.090099
1.900000,	0.093069
1.950000,	0.096040
2.000000,	0.099010
2.050000,	0.101980
2.100000,	0.104950
2.150000,	0.107921
2.200000,	0.110891
2.250000,	0.113861
2.300000,	0.116832
2.350000,	0.119802
2.400000,	0.122772
2.450000,	0.125743
2.500000,	0.128713
2.550000,	0.131683
2.600000,	0.134653
2.650000,	0.137624
2.700000,	0.140594
2.750000,	0.143564
2.800000,	0.146535
2.850000,	0.149505
2.900000,	0.152475
2.950000,	0.155446
3.000000,	0.158416
3.050000,	0.161386
3.100000,	0.164356
3.150000,	0.167327
3.200000,	0.170297
3.250000,	0.173267
3.300000,	0.176238
3.350000,	0.179208
3.400000,	0.182178
3.450000,	0.185149
3.500000,	0.188119
3.550000,	0.191089
3.600000,	0.194059
3.650000,	0.197030
3.700000,	0.200000
3.750000,	0.202970
3.800000,	0.205941
3.850000,	0.208911
3.900000,	0.211881
3.950000,	0.214851
4.000000,	0.217822
4.050000,	0.220792
4.100000,	0.223762
4.150000,	0.226733
4.200000,	0.229703
4.250000,	0.232673
4.300000,	0.235644
4.350000,	0.238614
4.400000,	0.241584
4.450000,	0.244554
4.500000,	0.247525
4.550000,	0.250495
4.600000,	0.253465
4.650000,	0.256436
4.700000,	0.259406
4.750000,	0.262376
4.800000,	0.265347
4.850000,	0.268317
4.900000,	0.271287
4.950000,	0.274257
5.000000,	0.277228
0.000000,	0.297030
0.050000,	0.289604
0.100000,	0.282178
0.150000,	0.274752
0.200000,	0.267327
0.250000,	0.259901
0.300000,	0.252475
0.350000,	0.245050
0.400000,	0.237624
0.450000,	0.230198
0.500000,	0.222772
0.550000,	0.215347
0.600000,	0.207921
0.650000,	0.200495
0.700000,	0.193069
0.750000,	0.185644
0.800000,	0.178218
0.850000,	0.170792
0.900000,	0.163366
0.950000,	0.155941
1.000000,	0.148515
1.050000,	0.141089
1.100000,	0.133663
1.150000,	0.126238
1.200000,	0.118812
1.250000,	0.111386
1.300000,	0.103960
1.350000,	0.096535
1.400000,	0.089109
1.450000,	0.081683
1.500000,	0.074257
1.550000,	0.077440
1.600000,	0.080622
1.650000,	0.083805
1.700000,	0.086987
1.750000,	0.090170
1.800000,	0.093352
1.850000,	0.096535
1.900000,	0.099717
1.950000,	0.102900
2.000000,	0.106082
2.050000,	0.109264
2.100000,	0.112447
2.150000,	0.115629
2.200000,	0.118812
2.250000,	0.121994
2.300000,	0.125177
2.350000,	0.128359
2.400000,	0.131542
2.450000,	0.134724
2.500000,	0.137907
2.550000,	0.141089
2.600000,	0.144272
2.650000,	0.147454
2.700000,	0.150636
2.750000,	0.153819
2.800000,	0.157001
2.850000,	0.160184
2.900000,	0.163366