TITLE = "2DRampMesh"
VARIABLES = "X", "Y"
ZONE I=201, J=201, DATAPACKING=POINT
0.000000,	0.000000
0.025000,	0.000000
0.050000,	0.000000
0.075000,	0.000000
0.100000,	0.000000
0.125000,	0.000000
0.150000,	0.000000
0.175000,	0.000000
0.200000,	0.000000
0.225000,	0.000000
0.250000,	0.000000
0.275000,	0.000000
0.300000,	0.000000
0.325000,	0.000000
0.350000,	0.000000
0.375000,	0.000000
0.400000,	0.000000
0.425000,	0.000000
0.450000,	0.000000
0.475000,	0.000000
0.500000,	0.000000
0.525000,	0.000000
0.550000,	0.000000
0.575000,	0.000000
0.600000,	0.000000
0.625000,	0.000000
0.650000,	0.000000
0.675000,	0.000000
0.700000,	0.000000
0.725000,	0.000000
0.750000,	0.000000
0.775000,	0.000000
0.800000,	0.000000
0.825000,	0.000000
0.850000,	0.000000
0.875000,	0.000000
0.900000,	0.000000
0.925000,	0.000000
0.950000,	0.000000
0.975000,	0.000000
1.000000,	0.000000
1.025000,	0.000000
1.050000,	0.000000
1.075000,	0.000000
1.100000,	0.000000
1.125000,	0.000000
1.150000,	0.000000
1.175000,	0.000000
1.200000,	0.000000
1.225000,	0.000000
1.250000,	0.000000
1.275000,	0.000000
1.300000,	0.000000
1.325000,	0.000000
1.350000,	0.000000
1.375000,	0.000000
1.400000,	0.000000
1.425000,	0.000000
1.450000,	0.000000
1.475000,	0.000000
1.500000,	0.000000
1.525000,	0.000000
1.550000,	0.000000
1.575000,	0.000000
1.600000,	0.000000
1.625000,	0.000000
1.650000,	0.000000
1.675000,	0.000000
1.700000,	0.000000
1.725000,	0.000000
1.750000,	0.000000
1.775000,	0.000000
1.800000,	0.000000
1.825000,	0.000000
1.850000,	0.000000
1.875000,	0.000000
1.900000,	0.000000
1.925000,	0.000000
1.950000,	0.000000
1.975000,	0.000000
2.000000,	0.000000
2.025000,	0.000000
2.050000,	0.000000
2.075000,	0.000000
2.100000,	0.000000
2.125000,	0.000000
2.150000,	0.000000
2.175000,	0.000000
2.200000,	0.000000
2.225000,	0.000000
2.250000,	0.000000
2.275000,	0.000000
2.300000,	0.000000
2.325000,	0.000000
2.350000,	0.000000
2.375000,	0.000000
2.400000,	0.000000
2.425000,	0.000000
2.450000,	0.000000
2.475000,	0.000000
2.500000,	0.000000
2.525000,	0.000000
2.550000,	0.000000
2.575000,	0.000000
2.600000,	0.000000
2.625000,	0.000000
2.650000,	0.000000
2.675000,	0.000000
2.700000,	0.000000
2.725000,	0.000000
2.750000,	0.000000
2.775000,	0.000000
2.800000,	0.000000
2.825000,	0.000000
2.850000,	0.000000
2.875000,	0.000000
2.900000,	0.000000
2.925000,	0.000000
2.950000,	0.000000
2.975000,	0.000000
3.000000,	0.000000
3.025000,	0.000000
3.050000,	0.000000
3.075000,	0.000000
3.100000,	0.000000
3.125000,	0.000000
3.150000,	0.000000
3.175000,	0.000000
3.200000,	0.000000
3.225000,	0.000000
3.250000,	0.000000
3.275000,	0.000000
3.300000,	0.000000
3.325000,	0.000000
3.350000,	0.000000
3.375000,	0.000000
3.400000,	0.000000
3.425000,	0.000000
3.450000,	0.000000
3.475000,	0.000000
3.500000,	0.000000
3.525000,	0.000000
3.550000,	0.000000
3.575000,	0.000000
3.600000,	0.000000
3.625000,	0.000000
3.650000,	0.000000
3.675000,	0.000000
3.700000,	0.000000
3.725000,	0.000000
3.750000,	0.000000
3.775000,	0.000000
3.800000,	0.000000
3.825000,	0.000000
3.850000,	0.000000
3.875000,	0.000000
3.900000,	0.000000
3.925000,	0.000000
3.950000,	0.000000
3.975000,	0.000000
4.000000,	0.000000
4.025000,	0.000000
4.050000,	0.000000
4.075000,	0.000000
4.100000,	0.000000
4.125000,	0.000000
4.150000,	0.000000
4.175000,	0.000000
4.200000,	0.000000
4.225000,	0.000000
4.250000,	0.000000
4.275000,	0.000000
4.300000,	0.000000
4.325000,	0.000000
4.350000,	0.000000
4.375000,	0.000000
4.400000,	0.000000
4.425000,	0.000000
4.450000,	0.000000
4.475000,	0.000000
4.500000,	0.000000
4.525000,	0.000000
4.550000,	0.000000
4.575000,	0.000000
4.600000,	0.000000
4.625000,	0.000000
4.650000,	0.000000
4.675000,	0.000000
4.700000,	0.000000
4.725000,	0.000000
4.750000,	0.000000
4.775000,	0.000000
4.800000,	0.000000
4.825000,	0.000000
4.850000,	0.000000
4.875000,	0.000000
4.900000,	0.000000
4.925000,	0.000000
4.950000,	0.000000
4.975000,	0.000000
5.000000,	0.000000
0.000000,	0.000037
0.025000,	0.000037
0.050000,	0.000037
0.075000,	0.000037
0.100000,	0.000037
0.125000,	0.000037
0.150000,	0.000037
0.175000,	0.000037
0.200000,	0.000037
0.225000,	0.000037
0.250000,	0.000037
0.275000,	0.000037
0.300000,	0.000037
0.325000,	0.000037
0.350000,	0.000037
0.375000,	0.000037
0.400000,	0.000037
0.425000,	0.000037
0.450000,	0.000037
0.475000,	0.000037
0.500000,	0.000037
0.525000,	0.000037
0.550000,	0.000037
0.575000,	0.000037
0.600000,	0.000037
0.625000,	0.000037
0.650000,	0.000037
0.675000,	0.000037
0.700000,	0.000037
0.725000,	0.000037
0.750000,	0.000037
0.775000,	0.000037
0.800000,	0.000037
0.825000,	0.000037
0.850000,	0.000037
0.875000,	0.000037
0.900000,	0.000037
0.925000,	0.000037
0.950000,	0.000037
0.975000,	0.000037
1.000000,	0.000037
1.025000,	0.000037
1.050000,	0.000037
1.075000,	0.000037
1.100000,	0.000037
1.125000,	0.000037
1.150000,	0.000037
1.175000,	0.000037
1.200000,	0.000037
1.225000,	0.000037
1.250000,	0.000037
1.275000,	0.000037
1.300000,	0.000037
1.325000,	0.000037
1.350000,	0.000037
1.375000,	0.000037
1.400000,	0.000037
1.425000,	0.000037
1.450000,	0.000037
1.475000,	0.000037
1.500000,	0.000037
1.525000,	0.000037
1.550000,	0.000037
1.575000,	0.000037
1.600000,	0.000037
1.625000,	0.000037
1.650000,	0.000037
1.675000,	0.000037
1.700000,	0.000037
1.725000,	0.000037
1.750000,	0.000037
1.775000,	0.000037
1.800000,	0.000037
1.825000,	0.000037
1.850000,	0.000037
1.875000,	0.000037
1.900000,	0.000037
1.925000,	0.000037
1.950000,	0.000037
1.975000,	0.000037
2.000000,	0.000037
2.025000,	0.000037
2.050000,	0.000037
2.075000,	0.000037
2.100000,	0.000037
2.125000,	0.000037
2.150000,	0.000037
2.175000,	0.000037
2.200000,	0.000037
2.225000,	0.000037
2.250000,	0.000037
2.275000,	0.000037
2.300000,	0.000037
2.325000,	0.000037
2.350000,	0.000037
2.375000,	0.000037
2.400000,	0.000037
2.425000,	0.000037
2.450000,	0.000037
2.475000,	0.000037
2.500000,	0.000037
2.525000,	0.000037
2.550000,	0.000037
2.575000,	0.000037
2.600000,	0.000037
2.625000,	0.000037
2.650000,	0.000037
2.675000,	0.000037
2.700000,	0.000037
2.725000,	0.000037
2.750000,	0.000037
2.775000,	0.000037
2.800000,	0.000037
2.825000,	0.000037
2.850000,	0.000037
2.875000,	0.000037
2.900000,	0.000037
2.925000,	0.000037
2.950000,	0.000037
2.975000,	0.000037
3.000000,	0.000037
3.025000,	0.000037
3.050000,	0.000037
3.075000,	0.000037
3.100000,	0.000037
3.125000,	0.000037
3.150000,	0.000037
3.175000,	0.000037
3.200000,	0.000037
3.225000,	0.000037
3.250000,	0.000037
3.275000,	0.000037
3.300000,	0.000037
3.325000,	0.000037
3.350000,	0.000037
3.375000,	0.000037
3.400000,	0.000037
3.425000,	0.000037
3.450000,	0.000037
3.475000,	0.000037
3.500000,	0.000037
3.525000,	0.000037
3.550000,	0.000037
3.575000,	0.000037
3.600000,	0.000037
3.625000,	0.000037
3.650000,	0.000037
3.675000,	0.000037
3.700000,	0.000037
3.725000,	0.000037
3.750000,	0.000037
3.775000,	0.000037
3.800000,	0.000037
3.825000,	0.000037
3.850000,	0.000037
3.875000,	0.000037
3.900000,	0.000037
3.925000,	0.000037
3.950000,	0.000037
3.975000,	0.000037
4.000000,	0.000037
4.025000,	0.000037
4.050000,	0.000037
4.075000,	0.000037
4.100000,	0.000037
4.125000,	0.000037
4.150000,	0.000037
4.175000,	0.000037
4.200000,	0.000037
4.225000,	0.000037
4.250000,	0.000037
4.275000,	0.000037
4.300000,	0.000037
4.325000,	0.000037
4.350000,	0.000037
4.375000,	0.000037
4.400000,	0.000037
4.425000,	0.000037
4.450000,	0.000037
4.475000,	0.000037
4.500000,	0.000037
4.525000,	0.000037
4.550000,	0.000037
4.575000,	0.000037
4.600000,	0.000037
4.625000,	0.000037
4.650000,	0.000037
4.675000,	0.000037
4.700000,	0.000037
4.725000,	0.000037
4.750000,	0.000037
4.775000,	0.000037
4.800000,	0.000037
4.825000,	0.000037
4.850000,	0.000037
4.875000,	0.000037
4.900000,	0.000037
4.925000,	0.000037
4.950000,	0.000037
4.975000,	0.000037
5.000000,	0.000037
0.000000,	0.000149
0.025000,	0.000149
0.050000,	0.000149
0.075000,	0.000149
0.100000,	0.000149
0.125000,	0.000149
0.150000,	0.000149
0.175000,	0.000149
0.200000,	0.000149
0.225000,	0.000149
0.250000,	0.000149
0.275000,	0.000149
0.300000,	0.000149
0.325000,	0.000149
0.350000,	0.000149
0.375000,	0.000149
0.400000,	0.000149
0.425000,	0.000149
0.450000,	0.000149
0.475000,	0.000149
0.500000,	0.000149
0.525000,	0.000149
0.550000,	0.000149
0.575000,	0.000149
0.600000,	0.000149
0.625000,	0.000149
0.650000,	0.000149
0.675000,	0.000149
0.700000,	0.000149
0.725000,	0.000149
0.750000,	0.000149
0.775000,	0.000149
0.800000,	0.000149
0.825000,	0.000149
0.850000,	0.000149
0.875000,	0.000149
0.900000,	0.000149
0.925000,	0.000149
0.950000,	0.000149
0.975000,	0.000149
1.000000,	0.000149
1.025000,	0.000149
1.050000,	0.000149
1.075000,	0.000149
1.100000,	0.000149
1.125000,	0.000149
1.150000,	0.000149
1.175000,	0.000149
1.200000,	0.000149
1.225000,	0.000149
1.250000,	0.000149
1.275000,	0.000149
1.300000,	0.000149
1.325000,	0.000149
1.350000,	0.000149
1.375000,	0.000149
1.400000,	0.000149
1.425000,	0.000149
1.450000,	0.000149
1.475000,	0.000149
1.500000,	0.000149
1.525000,	0.000149
1.550000,	0.000149
1.575000,	0.000149
1.600000,	0.000149
1.625000,	0.000149
1.650000,	0.000149
1.675000,	0.000149
1.700000,	0.000149
1.725000,	0.000149
1.750000,	0.000149
1.775000,	0.000149
1.800000,	0.000149
1.825000,	0.000149
1.850000,	0.000149
1.875000,	0.000149
1.900000,	0.000149
1.925000,	0.000149
1.950000,	0.000149
1.975000,	0.000149
2.000000,	0.000149
2.025000,	0.000149
2.050000,	0.000149
2.075000,	0.000149
2.100000,	0.000149
2.125000,	0.000149
2.150000,	0.000149
2.175000,	0.000149
2.200000,	0.000149
2.225000,	0.000149
2.250000,	0.000149
2.275000,	0.000149
2.300000,	0.000149
2.325000,	0.000149
2.350000,	0.000149
2.375000,	0.000149
2.400000,	0.000149
2.425000,	0.000149
2.450000,	0.000149
2.475000,	0.000149
2.500000,	0.000149
2.525000,	0.000149
2.550000,	0.000149
2.575000,	0.000149
2.600000,	0.000149
2.625000,	0.000149
2.650000,	0.000149
2.675000,	0.000149
2.700000,	0.000149
2.725000,	0.000149
2.750000,	0.000149
2.775000,	0.000149
2.800000,	0.000149
2.825000,	0.000149
2.850000,	0.000149
2.875000,	0.000149
2.900000,	0.000149
2.925000,	0.000149
2.950000,	0.000149
2.975000,	0.000149
3.000000,	0.000149
3.025000,	0.000149
3.050000,	0.000149
3.075000,	0.000149
3.100000,	0.000149
3.125000,	0.000149
3.150000,	0.000149
3.175000,	0.000149
3.200000,	0.000149
3.225000,	0.000149
3.250000,	0.000149
3.275000,	0.000149
3.300000,	0.000149
3.325000,	0.000149
3.350000,	0.000149
3.375000,	0.000149
3.400000,	0.000149
3.425000,	0.000149
3.450000,	0.000149
3.475000,	0.000149
3.500000,	0.000149
3.525000,	0.000149
3.550000,	0.000149
3.575000,	0.000149
3.600000,	0.000149
3.625000,	0.000149
3.650000,	0.000149
3.675000,	0.000149
3.700000,	0.000149
3.725000,	0.000149
3.750000,	0.000149
3.775000,	0.000149
3.800000,	0.000149
3.825000,	0.000149
3.850000,	0.000149
3.875000,	0.000149
3.900000,	0.000149
3.925000,	0.000149
3.950000,	0.000149
3.975000,	0.000149
4.000000,	0.000149
4.025000,	0.000149
4.050000,	0.000149
4.075000,	0.000149
4.100000,	0.000149
4.125000,	0.000149
4.150000,	0.000149
4.175000,	0.000149
4.200000,	0.000149
4.225000,	0.000149
4.250000,	0.000149
4.275000,	0.000149
4.300000,	0.000149
4.325000,	0.000149
4.350000,	0.000149
4.375000,	0.000149
4.400000,	0.000149
4.425000,	0.000149
4.450000,	0.000149
4.475000,	0.000149
4.500000,	0.000149
4.525000,	0.000149
4.550000,	0.000149
4.575000,	0.000149
4.600000,	0.000149
4.625000,	0.000149
4.650000,	0.000149
4.675000,	0.000149
4.700000,	0.000149
4.725000,	0.000149
4.750000,	0.000149
4.775000,	0.000149
4.800000,	0.000149
4.825000,	0.000149
4.850000,	0.000149
4.875000,	0.000149
4.900000,	0.000149
4.925000,	0.000149
4.950000,	0.000149
4.975000,	0.000149
5.000000,	0.000149
0.000000,	0.000336
0.025000,	0.000336
0.050000,	0.000336
0.075000,	0.000336
0.100000,	0.000336
0.125000,	0.000336
0.150000,	0.000336
0.175000,	0.000336
0.200000,	0.000336
0.225000,	0.000336
0.250000,	0.000336
0.275000,	0.000336
0.300000,	0.000336
0.325000,	0.000336
0.350000,	0.000336
0.375000,	0.000336
0.400000,	0.000336
0.425000,	0.000336
0.450000,	0.000336
0.475000,	0.000336
0.500000,	0.000336
0.525000,	0.000336
0.550000,	0.000336
0.575000,	0.000336
0.600000,	0.000336
0.625000,	0.000336
0.650000,	0.000336
0.675000,	0.000336
0.700000,	0.000336
0.725000,	0.000336
0.750000,	0.000336
0.775000,	0.000336
0.800000,	0.000336
0.825000,	0.000336
0.850000,	0.000336
0.875000,	0.000336
0.900000,	0.000336
0.925000,	0.000336
0.950000,	0.000336
0.975000,	0.000336
1.000000,	0.000336
1.025000,	0.000336
1.050000,	0.000336
1.075000,	0.000336
1.100000,	0.000336
1.125000,	0.000336
1.150000,	0.000336
1.175000,	0.000336
1.200000,	0.000336
1.225000,	0.000336
1.250000,	0.000336
1.275000,	0.000336
1.300000,	0.000336
1.325000,	0.000336
1.350000,	0.000336
1.375000,	0.000336
1.400000,	0.000336
1.425000,	0.000336
1.450000,	0.000336
1.475000,	0.000336
1.500000,	0.000336
1.525000,	0.000336
1.550000,	0.000336
1.575000,	0.000336
1.600000,	0.000336
1.625000,	0.000336
1.650000,	0.000336
1.675000,	0.000336
1.700000,	0.000336
1.725000,	0.000336
1.750000,	0.000336
1.775000,	0.000336
1.800000,	0.000336
1.825000,	0.000336
1.850000,	0.000336
1.875000,	0.000336
1.900000,	0.000336
1.925000,	0.000336
1.950000,	0.000336
1.975000,	0.000336
2.000000,	0.000336
2.025000,	0.000336
2.050000,	0.000336
2.075000,	0.000336
2.100000,	0.000336
2.125000,	0.000336
2.150000,	0.000336
2.175000,	0.000336
2.200000,	0.000336
2.225000,	0.000336
2.250000,	0.000336
2.275000,	0.000336
2.300000,	0.000336
2.325000,	0.000336
2.350000,	0.000336
2.375000,	0.000336
2.400000,	0.000336
2.425000,	0.000336
2.450000,	0.000336
2.475000,	0.000336
2.500000,	0.000336
2.525000,	0.000336
2.550000,	0.000336
2.575000,	0.000336
2.600000,	0.000336
2.625000,	0.000336
2.650000,	0.000336
2.675000,	0.000336
2.700000,	0.000336
2.725000,	0.000336
2.750000,	0.000336
2.775000,	0.000336
2.800000,	0.000336
2.825000,	0.000336
2.850000,	0.000336
2.875000,	0.000336
2.900000,	0.000336
2.925000,	0.000336
2.950000,	0.000336
2.975000,	0.000336
3.000000,	0.000336
3.025000,	0.000336
3.050000,	0.000336
3.075000,	0.000336
3.100000,	0.000336
3.125000,	0.000336
3.150000,	0.000336
3.175000,	0.000336
3.200000,	0.000336
3.225000,	0.000336
3.250000,	0.000336
3.275000,	0.000336
3.300000,	0.000336
3.325000,	0.000336
3.350000,	0.000336
3.375000,	0.000336
3.400000,	0.000336
3.425000,	0.000336
3.450000,	0.000336
3.475000,	0.000336
3.500000,	0.000336
3.525000,	0.000336
3.550000,	0.000336
3.575000,	0.000336
3.600000,	0.000336
3.625000,	0.000336
3.650000,	0.000336
3.675000,	0.000336
3.700000,	0.000336
3.725000,	0.000336
3.750000,	0.000336
3.775000,	0.000336
3.800000,	0.000336
3.825000,	0.000336
3.850000,	0.000336
3.875000,	0.000336
3.900000,	0.000336
3.925000,	0.000336
3.950000,	0.000336
3.975000,	0.000336
4.000000,	0.000336
4.025000,	0.000336
4.050000,	0.000336
4.075000,	0.000336
4.100000,	0.000336
4.125000,	0.000336
4.150000,	0.000336
4.175000,	0.000336
4.200000,	0.000336
4.225000,	0.000336
4.250000,	0.000336
4.275000,	0.000336
4.300000,	0.000336
4.325000,	0.000336
4.350000,	0.000336
4.375000,	0.000336
4.400000,	0.000336
4.425000,	0.000336
4.450000,	0.000336
4.475000,	0.000336
4.500000,	0.000336
4.525000,	0.000336
4.550000,	0.000336
4.575000,	0.000336
4.600000,	0.000336
4.625000,	0.000336
4.650000,	0.000336
4.675000,	0.000336
4.700000,	0.000336
4.725000,	0.000336
4.750000,	0.000336
4.775000,	0.000336
4.800000,	0.000336
4.825000,	0.000336
4.850000,	0.000336
4.875000,	0.000336
4.900000,	0.000336
4.925000,	0.000336
4.950000,	0.000336
4.975000,	0.000336
5.000000,	0.000336
0.000000,	0.000597
0.025000,	0.000597
0.050000,	0.000597
0.075000,	0.000597
0.100000,	0.000597
0.125000,	0.000597
0.150000,	0.000597
0.175000,	0.000597
0.200000,	0.000597
0.225000,	0.000597
0.250000,	0.000597
0.275000,	0.000597
0.300000,	0.000597
0.325000,	0.000597
0.350000,	0.000597
0.375000,	0.000597
0.400000,	0.000597
0.425000,	0.000597
0.450000,	0.000597
0.475000,	0.000597
0.500000,	0.000597
0.525000,	0.000597
0.550000,	0.000597
0.575000,	0.000597
0.600000,	0.000597
0.625000,	0.000597
0.650000,	0.000597
0.675000,	0.000597
0.700000,	0.000597
0.725000,	0.000597
0.750000,	0.000597
0.775000,	0.000597
0.800000,	0.000597
0.825000,	0.000597
0.850000,	0.000597
0.875000,	0.000597
0.900000,	0.000597
0.925000,	0.000597
0.950000,	0.000597
0.975000,	0.000597
1.000000,	0.000597
1.025000,	0.000597
1.050000,	0.000597
1.075000,	0.000597
1.100000,	0.000597
1.125000,	0.000597
1.150000,	0.000597
1.175000,	0.000597
1.200000,	0.000597
1.225000,	0.000597
1.250000,	0.000597
1.275000,	0.000597
1.300000,	0.000597
1.325000,	0.000597
1.350000,	0.000597
1.375000,	0.000597
1.400000,	0.000597
1.425000,	0.000597
1.450000,	0.000597
1.475000,	0.000597
1.500000,	0.000597
1.525000,	0.000597
1.550000,	0.000597
1.575000,	0.000597
1.600000,	0.000597
1.625000,	0.000597
1.650000,	0.000597
1.675000,	0.000597
1.700000,	0.000597
1.725000,	0.000597
1.750000,	0.000597
1.775000,	0.000597
1.800000,	0.000597
1.825000,	0.000597
1.850000,	0.000597
1.875000,	0.000597
1.900000,	0.000597
1.925000,	0.000597
1.950000,	0.000597
1.975000,	0.000597
2.000000,	0.000597
2.025000,	0.000597
2.050000,	0.000597
2.075000,	0.000597
2.100000,	0.000597
2.125000,	0.000597
2.150000,	0.000597
2.175000,	0.000597
2.200000,	0.000597
2.225000,	0.000597
2.250000,	0.000597
2.275000,	0.000597
2.300000,	0.000597
2.325000,	0.000597
2.350000,	0.000597
2.375000,	0.000597
2.400000,	0.000597
2.425000,	0.000597
2.450000,	0.000597
2.475000,	0.000597
2.500000,	0.000597
2.525000,	0.000597
2.550000,	0.000597
2.575000,	0.000597
2.600000,	0.000597
2.625000,	0.000597
2.650000,	0.000597
2.675000,	0.000597
2.700000,	0.000597
2.725000,	0.000597
2.750000,	0.000597
2.775000,	0.000597
2.800000,	0.000597
2.825000,	0.000597
2.850000,	0.000597
2.875000,	0.000597
2.900000,	0.000597
2.925000,	0.000597
2.950000,	0.000597
2.975000,	0.000597
3.000000,	0.000597
3.025000,	0.000597
3.050000,	0.000597
3.075000,	0.000597
3.100000,	0.000597
3.125000,	0.000597
3.150000,	0.000597
3.175000,	0.000597
3.200000,	0.000597
3.225000,	0.000597
3.250000,	0.000597
3.275000,	0.000597
3.300000,	0.000597
3.325000,	0.000597
3.350000,	0.000597
3.375000,	0.000597
3.400000,	0.000597
3.425000,	0.000597
3.450000,	0.000597
3.475000,	0.000597
3.500000,	0.000597
3.525000,	0.000597
3.550000,	0.000597
3.575000,	0.000597
3.600000,	0.000597
3.625000,	0.000597
3.650000,	0.000597
3.675000,	0.000597
3.700000,	0.000597
3.725000,	0.000597
3.750000,	0.000597
3.775000,	0.000597
3.800000,	0.000597
3.825000,	0.000597
3.850000,	0.000597
3.875000,	0.000597
3.900000,	0.000597
3.925000,	0.000597
3.950000,	0.000597
3.975000,	0.000597
4.000000,	0.000597
4.025000,	0.000597
4.050000,	0.000597
4.075000,	0.000597
4.100000,	0.000597
4.125000,	0.000597
4.150000,	0.000597
4.175000,	0.000597
4.200000,	0.000597
4.225000,	0.000597
4.250000,	0.000597
4.275000,	0.000597
4.300000,	0.000597
4.325000,	0.000597
4.350000,	0.000597
4.375000,	0.000597
4.400000,	0.000597
4.425000,	0.000597
4.450000,	0.000597
4.475000,	0.000597
4.500000,	0.000597
4.525000,	0.000597
4.550000,	0.000597
4.575000,	0.000597
4.600000,	0.000597
4.625000,	0.000597
4.650000,	0.000597
4.675000,	0.000597
4.700000,	0.000597
4.725000,	0.000597
4.750000,	0.000597
4.775000,	0.000597
4.800000,	0.000597
4.825000,	0.000597
4.850000,	0.000597
4.875000,	0.000597
4.900000,	0.000597
4.925000,	0.000597
4.950000,	0.000597
4.975000,	0.000597
5.000000,	0.000597
0.000000,	0.000933
0.025000,	0.000933
0.050000,	0.000933
0.075000,	0.000933
0.100000,	0.000933
0.125000,	0.000933
0.150000,	0.000933
0.175000,	0.000933
0.200000,	0.000933
0.225000,	0.000933
0.250000,	0.000933
0.275000,	0.000933
0.300000,	0.000933
0.325000,	0.000933
0.350000,	0.000933
0.375000,	0.000933
0.400000,	0.000933
0.425000,	0.000933
0.450000,	0.000933
0.475000,	0.000933
0.500000,	0.000933
0.525000,	0.000933
0.550000,	0.000933
0.575000,	0.000933
0.600000,	0.000933
0.625000,	0.000933
0.650000,	0.000933
0.675000,	0.000933
0.700000,	0.000933
0.725000,	0.000933
0.750000,	0.000933
0.775000,	0.000933
0.800000,	0.000933
0.825000,	0.000933
0.850000,	0.000933
0.875000,	0.000933
0.900000,	0.000933
0.925000,	0.000933
0.950000,	0.000933
0.975000,	0.000933
1.000000,	0.000933
1.025000,	0.000933
1.050000,	0.000933
1.075000,	0.000933
1.100000,	0.000933
1.125000,	0.000933
1.150000,	0.000933
1.175000,	0.000933
1.200000,	0.000933
1.225000,	0.000933
1.250000,	0.000933
1.275000,	0.000933
1.300000,	0.000933
1.325000,	0.000933
1.350000,	0.000933
1.375000,	0.000933
1.400000,	0.000933
1.425000,	0.000933
1.450000,	0.000933
1.475000,	0.000933
1.500000,	0.000933
1.525000,	0.000933
1.550000,	0.000933
1.575000,	0.000933
1.600000,	0.000933
1.625000,	0.000933
1.650000,	0.000933
1.675000,	0.000933
1.700000,	0.000933
1.725000,	0.000933
1.750000,	0.000933
1.775000,	0.000933
1.800000,	0.000933
1.825000,	0.000933
1.850000,	0.000933
1.875000,	0.000933
1.900000,	0.000933
1.925000,	0.000933
1.950000,	0.000933
1.975000,	0.000933
2.000000,	0.000933
2.025000,	0.000933
2.050000,	0.000933
2.075000,	0.000933
2.100000,	0.000933
2.125000,	0.000933
2.150000,	0.000933
2.175000,	0.000933
2.200000,	0.000933
2.225000,	0.000933
2.250000,	0.000933
2.275000,	0.000933
2.300000,	0.000933
2.325000,	0.000933
2.350000,	0.000933
2.375000,	0.000933
2.400000,	0.000933
2.425000,	0.000933
2.450000,	0.000933
2.475000,	0.000933
2.500000,	0.000933
2.525000,	0.000933
2.550000,	0.000933
2.575000,	0.000933
2.600000,	0.000933
2.625000,	0.000933
2.650000,	0.000933
2.675000,	0.000933
2.700000,	0.000933
2.725000,	0.000933
2.750000,	0.000933
2.775000,	0.000933
2.800000,	0.000933
2.825000,	0.000933
2.850000,	0.000933
2.875000,	0.000933
2.900000,	0.000933
2.925000,	0.000933
2.950000,	0.000933
2.975000,	0.000933
3.000000,	0.000933
3.025000,	0.000933
3.050000,	0.000933
3.075000,	0.000933
3.100000,	0.000933
3.125000,	0.000933
3.150000,	0.000933
3.175000,	0.000933
3.200000,	0.000933
3.225000,	0.000933
3.250000,	0.000933
3.275000,	0.000933
3.300000,	0.000933
3.325000,	0.000933
3.350000,	0.000933
3.375000,	0.000933
3.400000,	0.000933
3.425000,	0.000933
3.450000,	0.000933
3.475000,	0.000933
3.500000,	0.000933
3.525000,	0.000933
3.550000,	0.000933
3.575000,	0.000933
3.600000,	0.000933
3.625000,	0.000933
3.650000,	0.000933
3.675000,	0.000933
3.700000,	0.000933
3.725000,	0.000933
3.750000,	0.000933
3.775000,	0.000933
3.800000,	0.000933
3.825000,	0.000933
3.850000,	0.000933
3.875000,	0.000933
3.900000,	0.000933
3.925000,	0.000933
3.950000,	0.000933
3.975000,	0.000933
4.000000,	0.000933
4.025000,	0.000933
4.050000,	0.000933
4.075000,	0.000933
4.100000,	0.000933
4.125000,	0.000933
4.150000,	0.000933
4.175000,	0.000933
4.200000,	0.000933
4.225000,	0.000933
4.250000,	0.000933
4.275000,	0.000933
4.300000,	0.000933
4.325000,	0.000933
4.350000,	0.000933
4.375000,	0.000933
4.400000,	0.000933
4.425000,	0.000933
4.450000,	0.000933
4.475000,	0.000933
4.500000,	0.000933
4.525000,	0.000933
4.550000,	0.000933
4.575000,	0.000933
4.600000,	0.000933
4.625000,	0.000933
4.650000,	0.000933
4.675000,	0.000933
4.700000,	0.000933
4.725000,	0.000933
4.750000,	0.000933
4.775000,	0.000933
4.800000,	0.000933
4.825000,	0.000933
4.850000,	0.000933
4.875000,	0.000933
4.900000,	0.000933
4.925000,	0.000933
4.950000,	0.000933
4.975000,	0.000933
5.000000,	0.000933
0.000000,	0.001343
0.025000,	0.001343
0.050000,	0.001343
0.075000,	0.001343
0.100000,	0.001343
0.125000,	0.001343
0.150000,	0.001343
0.175000,	0.001343
0.200000,	0.001343
0.225000,	0.001343
0.250000,	0.001343
0.275000,	0.001343
0.300000,	0.001343
0.325000,	0.001343
0.350000,	0.001343
0.375000,	0.001343
0.400000,	0.001343
0.425000,	0.001343
0.450000,	0.001343
0.475000,	0.001343
0.500000,	0.001343
0.525000,	0.001343
0.550000,	0.001343
0.575000,	0.001343
0.600000,	0.001343
0.625000,	0.001343
0.650000,	0.001343
0.675000,	0.001343
0.700000,	0.001343
0.725000,	0.001343
0.750000,	0.001343
0.775000,	0.001343
0.800000,	0.001343
0.825000,	0.001343
0.850000,	0.001343
0.875000,	0.001343
0.900000,	0.001343
0.925000,	0.001343
0.950000,	0.001343
0.975000,	0.001343
1.000000,	0.001343
1.025000,	0.001343
1.050000,	0.001343
1.075000,	0.001343
1.100000,	0.001343
1.125000,	0.001343
1.150000,	0.001343
1.175000,	0.001343
1.200000,	0.001343
1.225000,	0.001343
1.250000,	0.001343
1.275000,	0.001343
1.300000,	0.001343
1.325000,	0.001343
1.350000,	0.001343
1.375000,	0.001343
1.400000,	0.001343
1.425000,	0.001343
1.450000,	0.001343
1.475000,	0.001343
1.500000,	0.001343
1.525000,	0.001343
1.550000,	0.001343
1.575000,	0.001343
1.600000,	0.001343
1.625000,	0.001343
1.650000,	0.001343
1.675000,	0.001343
1.700000,	0.001343
1.725000,	0.001343
1.750000,	0.001343
1.775000,	0.001343
1.800000,	0.001343
1.825000,	0.001343
1.850000,	0.001343
1.875000,	0.001343
1.900000,	0.001343
1.925000,	0.001343
1.950000,	0.001343
1.975000,	0.001343
2.000000,	0.001343
2.025000,	0.001343
2.050000,	0.001343
2.075000,	0.001343
2.100000,	0.001343
2.125000,	0.001343
2.150000,	0.001343
2.175000,	0.001343
2.200000,	0.001343
2.225000,	0.001343
2.250000,	0.001343
2.275000,	0.001343
2.300000,	0.001343
2.325000,	0.001343
2.350000,	0.001343
2.375000,	0.001343
2.400000,	0.001343
2.425000,	0.001343
2.450000,	0.001343
2.475000,	0.001343
2.500000,	0.001343
2.525000,	0.001343
2.550000,	0.001343
2.575000,	0.001343
2.600000,	0.001343
2.625000,	0.001343
2.650000,	0.001343
2.675000,	0.001343
2.700000,	0.001343
2.725000,	0.001343
2.750000,	0.001343
2.775000,	0.001343
2.800000,	0.001343
2.825000,	0.001343
2.850000,	0.001343
2.875000,	0.001343
2.900000,	0.001343
2.925000,	0.001343
2.950000,	0.001343
2.975000,	0.001343
3.000000,	0.001343
3.025000,	0.001343
3.050000,	0.001343
3.075000,	0.001343
3.100000,	0.001343
3.125000,	0.001343
3.150000,	0.001343
3.175000,	0.001343
3.200000,	0.001343
3.225000,	0.001343
3.250000,	0.001343
3.275000,	0.001343
3.300000,	0.001343
3.325000,	0.001343
3.350000,	0.001343
3.375000,	0.001343
3.400000,	0.001343
3.425000,	0.001343
3.450000,	0.001343
3.475000,	0.001343
3.500000,	0.001343
3.525000,	0.001343
3.550000,	0.001343
3.575000,	0.001343
3.600000,	0.001343
3.625000,	0.001343
3.650000,	0.001343
3.675000,	0.001343
3.700000,	0.001343
3.725000,	0.001343
3.750000,	0.001343
3.775000,	0.001343
3.800000,	0.001343
3.825000,	0.001343
3.850000,	0.001343
3.875000,	0.001343
3.900000,	0.001343
3.925000,	0.001343
3.950000,	0.001343
3.975000,	0.001343
4.000000,	0.001343
4.025000,	0.001343
4.050000,	0.001343
4.075000,	0.001343
4.100000,	0.001343
4.125000,	0.001343
4.150000,	0.001343
4.175000,	0.001343
4.200000,	0.001343
4.225000,	0.001343
4.250000,	0.001343
4.275000,	0.001343
4.300000,	0.001343
4.325000,	0.001343
4.350000,	0.001343
4.375000,	0.001343
4.400000,	0.001343
4.425000,	0.001343
4.450000,	0.001343
4.475000,	0.001343
4.500000,	0.001343
4.525000,	0.001343
4.550000,	0.001343
4.575000,	0.001343
4.600000,	0.001343
4.625000,	0.001343
4.650000,	0.001343
4.675000,	0.001343
4.700000,	0.001343
4.725000,	0.001343
4.750000,	0.001343
4.775000,	0.001343
4.800000,	0.001343
4.825000,	0.001343
4.850000,	0.001343
4.875000,	0.001343
4.900000,	0.001343
4.925000,	0.001343
4.950000,	0.001343
4.975000,	0.001343
5.000000,	0.001343
0.000000,	0.001828
0.025000,	0.001828
0.050000,	0.001828
0.075000,	0.001828
0.100000,	0.001828
0.125000,	0.001828
0.150000,	0.001828
0.175000,	0.001828
0.200000,	0.001828
0.225000,	0.001828
0.250000,	0.001828
0.275000,	0.001828
0.300000,	0.001828
0.325000,	0.001828
0.350000,	0.001828
0.375000,	0.001828
0.400000,	0.001828
0.425000,	0.001828
0.450000,	0.001828
0.475000,	0.001828
0.500000,	0.001828
0.525000,	0.001828
0.550000,	0.001828
0.575000,	0.001828
0.600000,	0.001828
0.625000,	0.001828
0.650000,	0.001828
0.675000,	0.001828
0.700000,	0.001828
0.725000,	0.001828
0.750000,	0.001828
0.775000,	0.001828
0.800000,	0.001828
0.825000,	0.001828
0.850000,	0.001828
0.875000,	0.001828
0.900000,	0.001828
0.925000,	0.001828
0.950000,	0.001828
0.975000,	0.001828
1.000000,	0.001828
1.025000,	0.001828
1.050000,	0.001828
1.075000,	0.001828
1.100000,	0.001828
1.125000,	0.001828
1.150000,	0.001828
1.175000,	0.001828
1.200000,	0.001828
1.225000,	0.001828
1.250000,	0.001828
1.275000,	0.001828
1.300000,	0.001828
1.325000,	0.001828
1.350000,	0.001828
1.375000,	0.001828
1.400000,	0.001828
1.425000,	0.001828
1.450000,	0.001828
1.475000,	0.001828
1.500000,	0.001828
1.525000,	0.001828
1.550000,	0.001828
1.575000,	0.001828
1.600000,	0.001828
1.625000,	0.001828
1.650000,	0.001828
1.675000,	0.001828
1.700000,	0.001828
1.725000,	0.001828
1.750000,	0.001828
1.775000,	0.001828
1.800000,	0.001828
1.825000,	0.001828
1.850000,	0.001828
1.875000,	0.001828
1.900000,	0.001828
1.925000,	0.001828
1.950000,	0.001828
1.975000,	0.001828
2.000000,	0.001828
2.025000,	0.001828
2.050000,	0.001828
2.075000,	0.001828
2.100000,	0.001828
2.125000,	0.001828
2.150000,	0.001828
2.175000,	0.001828
2.200000,	0.001828
2.225000,	0.001828
2.250000,	0.001828
2.275000,	0.001828
2.300000,	0.001828
2.325000,	0.001828
2.350000,	0.001828
2.375000,	0.001828
2.400000,	0.001828
2.425000,	0.001828
2.450000,	0.001828
2.475000,	0.001828
2.500000,	0.001828
2.525000,	0.001828
2.550000,	0.001828
2.575000,	0.001828
2.600000,	0.001828
2.625000,	0.001828
2.650000,	0.001828
2.675000,	0.001828
2.700000,	0.001828
2.725000,	0.001828
2.750000,	0.001828
2.775000,	0.001828
2.800000,	0.001828
2.825000,	0.001828
2.850000,	0.001828
2.875000,	0.001828
2.900000,	0.001828
2.925000,	0.001828
2.950000,	0.001828
2.975000,	0.001828
3.000000,	0.001828
3.025000,	0.001828
3.050000,	0.001828
3.075000,	0.001828
3.100000,	0.001828
3.125000,	0.001828
3.150000,	0.001828
3.175000,	0.001828
3.200000,	0.001828
3.225000,	0.001828
3.250000,	0.001828
3.275000,	0.001828
3.300000,	0.001828
3.325000,	0.001828
3.350000,	0.001828
3.375000,	0.001828
3.400000,	0.001828
3.425000,	0.001828
3.450000,	0.001828
3.475000,	0.001828
3.500000,	0.001828
3.525000,	0.001828
3.550000,	0.001828
3.575000,	0.001828
3.600000,	0.001828
3.625000,	0.001828
3.650000,	0.001828
3.675000,	0.001828
3.700000,	0.001828
3.725000,	0.001828
3.750000,	0.001828
3.775000,	0.001828
3.800000,	0.001828
3.825000,	0.001828
3.850000,	0.001828
3.875000,	0.001828
3.900000,	0.001828
3.925000,	0.001828
3.950000,	0.001828
3.975000,	0.001828
4.000000,	0.001828
4.025000,	0.001828
4.050000,	0.001828
4.075000,	0.001828
4.100000,	0.001828
4.125000,	0.001828
4.150000,	0.001828