TITLE = "2DRampMesh"
VARIABLES = "X", "Y"
ZONE I=251, J=101, DATAPACKING=POINT
0.000000,	0.000000
0.024000,	0.000000
0.048000,	0.000000
0.072000,	0.000000
0.096000,	0.000000
0.120000,	0.000000
0.144000,	0.000000
0.168000,	0.000000
0.192000,	0.000000
0.216000,	0.000000
0.240000,	0.000000
0.264000,	0.000000
0.288000,	0.000000
0.312000,	0.000000
0.336000,	0.000000
0.360000,	0.000000
0.384000,	0.000000
0.408000,	0.000000
0.432000,	0.000000
0.456000,	0.000000
0.480000,	0.000000
0.504000,	0.000000
0.528000,	0.000000
0.552000,	0.000000
0.576000,	0.000000
0.600000,	0.000000
0.624000,	0.000000
0.648000,	0.000000
0.672000,	0.000000
0.696000,	0.000000
0.720000,	0.000000
0.744000,	0.000000
0.768000,	0.000000
0.792000,	0.000000
0.816000,	0.000000
0.840000,	0.000000
0.864000,	0.000000
0.888000,	0.000000
0.912000,	0.000000
0.936000,	0.000000
0.960000,	0.000000
0.984000,	0.000000
1.008000,	0.004000
1.032000,	0.016000
1.056000,	0.028000
1.080000,	0.040000
1.104000,	0.052000
1.128000,	0.064000
1.152000,	0.076000
1.176000,	0.088000
1.200000,	0.100000
1.224000,	0.112000
1.248000,	0.124000
1.272000,	0.136000
1.296000,	0.148000
1.320000,	0.160000
1.344000,	0.172000
1.368000,	0.184000
1.392000,	0.196000
1.416000,	0.208000
1.440000,	0.220000
1.464000,	0.232000
1.488000,	0.244000
1.512000,	0.250000
1.536000,	0.250000
1.560000,	0.250000
1.584000,	0.250000
1.608000,	0.250000
1.632000,	0.250000
1.656000,	0.250000
1.680000,	0.250000
1.704000,	0.250000
1.728000,	0.250000
1.752000,	0.250000
1.776000,	0.250000
1.800000,	0.250000
1.824000,	0.250000
1.848000,	0.250000
1.872000,	0.250000
1.896000,	0.250000
1.920000,	0.250000
1.944000,	0.250000
1.968000,	0.250000
1.992000,	0.250000
2.016000,	0.250000
2.040000,	0.250000
2.064000,	0.250000
2.088000,	0.250000
2.112000,	0.250000
2.136000,	0.250000
2.160000,	0.250000
2.184000,	0.250000
2.208000,	0.250000
2.232000,	0.250000
2.256000,	0.250000
2.280000,	0.250000
2.304000,	0.250000
2.328000,	0.250000
2.352000,	0.250000
2.376000,	0.250000
2.400000,	0.250000
2.424000,	0.250000
2.448000,	0.250000
2.472000,	0.250000
2.496000,	0.250000
2.520000,	0.250000
2.544000,	0.250000
2.568000,	0.250000
2.592000,	0.250000
2.616000,	0.250000
2.640000,	0.250000
2.664000,	0.250000
2.688000,	0.250000
2.712000,	0.250000
2.736000,	0.250000
2.760000,	0.250000
2.784000,	0.250000
2.808000,	0.250000
2.832000,	0.250000
2.856000,	0.250000
2.880000,	0.250000
2.904000,	0.250000
2.928000,	0.250000
2.952000,	0.250000
2.976000,	0.250000
3.000000,	0.250000
3.024000,	0.250000
3.048000,	0.250000
3.072000,	0.250000
3.096000,	0.250000
3.120000,	0.250000
3.144000,	0.250000
3.168000,	0.250000
3.192000,	0.250000
3.216000,	0.250000
3.240000,	0.250000
3.264000,	0.250000
3.288000,	0.250000
3.312000,	0.250000
3.336000,	0.250000
3.360000,	0.250000
3.384000,	0.250000
3.408000,	0.250000
3.432000,	0.250000
3.456000,	0.250000
3.480000,	0.250000
3.504000,	0.250000
3.528000,	0.250000
3.552000,	0.250000
3.576000,	0.250000
3.600000,	0.250000
3.624000,	0.250000
3.648000,	0.250000
3.672000,	0.250000
3.696000,	0.250000
3.720000,	0.250000
3.744000,	0.250000
3.768000,	0.250000
3.792000,	0.250000
3.816000,	0.250000
3.840000,	0.250000
3.864000,	0.250000
3.888000,	0.250000
3.912000,	0.250000
3.936000,	0.250000
3.960000,	0.250000
3.984000,	0.250000
4.008000,	0.250000
4.032000,	0.250000
4.056000,	0.250000
4.080000,	0.250000
4.104000,	0.250000
4.128000,	0.250000
4.152000,	0.250000
4.176000,	0.250000
4.200000,	0.250000
4.224000,	0.250000
4.248000,	0.250000
4.272000,	0.250000
4.296000,	0.250000
4.320000,	0.250000
4.344000,	0.250000
4.368000,	0.250000
4.392000,	0.250000
4.416000,	0.250000
4.440000,	0.250000
4.464000,	0.250000
4.488000,	0.250000
4.512000,	0.250000
4.536000,	0.250000
4.560000,	0.250000
4.584000,	0.250000
4.608000,	0.250000
4.632000,	0.250000
4.656000,	0.250000
4.680000,	0.250000
4.704000,	0.250000
4.728000,	0.250000
4.752000,	0.250000
4.776000,	0.250000
4.800000,	0.250000
4.824000,	0.250000
4.848000,	0.250000
4.872000,	0.250000
4.896000,	0.250000
4.920000,	0.250000
4.944000,	0.250000
4.968000,	0.250000
4.992000,	0.250000
5.016000,	0.250000
5.040000,	0.250000
5.064000,	0.250000
5.088000,	0.250000
5.112000,	0.250000
5.136000,	0.250000
5.160000,	0.250000
5.184000,	0.250000
5.208000,	0.250000
5.232000,	0.250000
5.256000,	0.250000
5.280000,	0.250000
5.304000,	0.250000
5.328000,	0.250000
5.352000,	0.250000
5.376000,	0.250000
5.400000,	0.250000
5.424000,	0.250000
5.448000,	0.250000
5.472000,	0.250000
5.496000,	0.250000
5.520000,	0.250000
5.544000,	0.250000
5.568000,	0.250000
5.592000,	0.250000
5.616000,	0.250000
5.640000,	0.250000
5.664000,	0.250000
5.688000,	0.250000
5.712000,	0.250000
5.736000,	0.250000
5.760000,	0.250000
5.784000,	0.250000
5.808000,	0.250000
5.832000,	0.250000
5.856000,	0.250000
5.880000,	0.250000
5.904000,	0.250000
5.928000,	0.250000
5.952000,	0.250000
5.976000,	0.250000
6.000000,	0.250000
0.000000,	0.014851
0.024000,	0.014851
0.048000,	0.014851
0.072000,	0.014851
0.096000,	0.014851
0.120000,	0.014851
0.144000,	0.014851
0.168000,	0.014851
0.192000,	0.014851
0.216000,	0.014851
0.240000,	0.014851
0.264000,	0.014851
0.288000,	0.014851
0.312000,	0.014851
0.336000,	0.014851
0.360000,	0.014851
0.384000,	0.014851
0.408000,	0.014851
0.432000,	0.014851
0.456000,	0.014851
0.480000,	0.014851
0.504000,	0.014851
0.528000,	0.014851
0.552000,	0.014851
0.576000,	0.014851
0.600000,	0.014851
0.624000,	0.014851
0.648000,	0.014851
0.672000,	0.014851
0.696000,	0.014851
0.720000,	0.014851
0.744000,	0.014851
0.768000,	0.014851
0.792000,	0.014851
0.816000,	0.014851
0.840000,	0.014851
0.864000,	0.014851
0.888000,	0.014851
0.912000,	0.014851
0.936000,	0.014851
0.960000,	0.014851
0.984000,	0.014851
1.008000,	0.018812
1.032000,	0.030693
1.056000,	0.042574
1.080000,	0.054455
1.104000,	0.066337
1.128000,	0.078218
1.152000,	0.090099
1.176000,	0.101980
1.200000,	0.113861
1.224000,	0.125743
1.248000,	0.137624
1.272000,	0.149505
1.296000,	0.161386
1.320000,	0.173267
1.344000,	0.185149
1.368000,	0.197030
1.392000,	0.208911
1.416000,	0.220792
1.440000,	0.232673
1.464000,	0.244554
1.488000,	0.256436
1.512000,	0.262376
1.536000,	0.262376
1.560000,	0.262376
1.584000,	0.262376
1.608000,	0.262376
1.632000,	0.262376
1.656000,	0.262376
1.680000,	0.262376
1.704000,	0.262376
1.728000,	0.262376
1.752000,	0.262376
1.776000,	0.262376
1.800000,	0.262376
1.824000,	0.262376
1.848000,	0.262376
1.872000,	0.262376
1.896000,	0.262376
1.920000,	0.262376
1.944000,	0.262376
1.968000,	0.262376
1.992000,	0.262376
2.016000,	0.262376
2.040000,	0.262376
2.064000,	0.262376
2.088000,	0.262376
2.112000,	0.262376
2.136000,	0.262376
2.160000,	0.262376
2.184000,	0.262376
2.208000,	0.262376
2.232000,	0.262376
2.256000,	0.262376
2.280000,	0.262376
2.304000,	0.262376
2.328000,	0.262376
2.352000,	0.262376
2.376000,	0.262376
2.400000,	0.262376
2.424000,	0.262376
2.448000,	0.262376
2.472000,	0.262376
2.496000,	0.262376
2.520000,	0.262376
2.544000,	0.262376
2.568000,	0.262376
2.592000,	0.262376
2.616000,	0.262376
2.640000,	0.262376
2.664000,	0.262376
2.688000,	0.262376
2.712000,	0.262376
2.736000,	0.262376
2.760000,	0.262376
2.784000,	0.262376
2.808000,	0.262376
2.832000,	0.262376
2.856000,	0.262376
2.880000,	0.262376
2.904000,	0.262376
2.928000,	0.262376
2.952000,	0.262376
2.976000,	0.262376
3.000000,	0.262376
3.024000,	0.262376
3.048000,	0.262376
3.072000,	0.262376
3.096000,	0.262376
3.120000,	0.262376
3.144000,	0.262376
3.168000,	0.262376
3.192000,	0.262376
3.216000,	0.262376
3.240000,	0.262376
3.264000,	0.262376
3.288000,	0.262376
3.312000,	0.262376
3.336000,	0.262376
3.360000,	0.262376
3.384000,	0.262376
3.408000,	0.262376
3.432000,	0.262376
3.456000,	0.262376
3.480000,	0.262376
3.504000,	0.262376
3.528000,	0.262376
3.552000,	0.262376
3.576000,	0.262376
3.600000,	0.262376
3.624000,	0.262376
3.648000,	0.262376
3.672000,	0.262376
3.696000,	0.262376
3.720000,	0.262376
3.744000,	0.262376
3.768000,	0.262376
3.792000,	0.262376
3.816000,	0.262376
3.840000,	0.262376
3.864000,	0.262376
3.888000,	0.262376
3.912000,	0.262376
3.936000,	0.262376
3.960000,	0.262376
3.984000,	0.262376
4.008000,	0.262376
4.032000,	0.262376
4.056000,	0.262376
4.080000,	0.262376
4.104000,	0.262376
4.128000,	0.262376
4.152000,	0.262376
4.176000,	0.262376
4.200000,	0.262376
4.224000,	0.262376
4.248000,	0.262376
4.272000,	0.262376
4.296000,	0.262376
4.320000,	0.262376
4.344000,	0.262376
4.368000,	0.262376
4.392000,	0.262376
4.416000,	0.262376
4.440000,	0.262376
4.464000,	0.262376
4.488000,	0.262376
4.512000,	0.262376
4.536000,	0.262376
4.560000,	0.262376
4.584000,	0.262376
4.608000,	0.262376
4.632000,	0.262376
4.656000,	0.262376
4.680000,	0.262376
4.704000,	0.262376
4.728000,	0.262376
4.752000,	0.262376
4.776000,	0.262376
4.800000,	0.262376
4.824000,	0.262376
4.848000,	0.262376
4.872000,	0.262376
4.896000,	0.262376
4.920000,	0.262376
4.944000,	0.262376
4.968000,	0.262376
4.992000,	0.262376
5.016000,	0.262376
5.040000,	0.262376
5.064000,	0.262376
5.088000,	0.262376
5.112000,	0.262376
5.136000,	0.262376
5.160000,	0.262376
5.184000,	0.262376
5.208000,	0.262376
5.232000,	0.262376
5.256000,	0.262376
5.280000,	0.262376
5.304000,	0.262376
5.328000,	0.262376
5.352000,	0.262376
5.376000,	0.262376
5.400000,	0.262376
5.424000,	0.262376
5.448000,	0.262376
5.472000,	0.262376
5.496000,	0.262376
5.520000,	0.262376
5.544000,	0.262376
5.568000,	0.262376
5.592000,	0.262376
5.616000,	0.262376
5.640000,	0.262376
5.664000,	0.262376
5.688000,	0.262376
5.712000,	0.262376
5.736000,	0.262376
5.760000,	0.262376
5.784000,	0.262376
5.808000,	0.262376
5.832000,	0.262376
5.856000,	0.262376
5.880000,	0.262376
5.904000,	0.262376
5.928000,	0.262376
5.952000,	0.262376
5.976000,	0.262376
6.000000,	0.262376
0.000000,	0.029703
0.024000,	0.029703
0.048000,	0.029703
0.072000,	0.029703
0.096000,	0.029703
0.120000,	0.029703
0.144000,	0.029703
0.168000,	0.029703
0.192000,	0.029703
0.216000,	0.029703
0.240000,	0.029703
0.264000,	0.029703
0.288000,	0.029703
0.312000,	0.029703
0.336000,	0.029703
0.360000,	0.029703
0.384000,	0.029703
0.408000,	0.029703
0.432000,	0.029703
0.456000,	0.029703
0.480000,	0.029703
0.504000,	0.029703
0.528000,	0.029703
0.552000,	0.029703
0.576000,	0.029703
0.600000,	0.029703
0.624000,	0.029703
0.648000,	0.029703
0.672000,	0.029703
0.696000,	0.029703
0.720000,	0.029703
0.744000,	0.029703
0.768000,	0.029703
0.792000,	0.029703
0.816000,	0.029703
0.840000,	0.029703
0.864000,	0.029703
0.888000,	0.029703
0.912000,	0.029703
0.936000,	0.029703
0.960000,	0.029703
0.984000,	0.029703
1.008000,	0.033624
1.032000,	0.045386
1.056000,	0.057149
1.080000,	0.068911
1.104000,	0.080673
1.128000,	0.092436
1.152000,	0.104198
1.176000,	0.115960
1.200000,	0.127723
1.224000,	0.139485
1.248000,	0.151248
1.272000,	0.163010
1.296000,	0.174772
1.320000,	0.186535
1.344000,	0.198297
1.368000,	0.210059
1.392000,	0.221822
1.416000,	0.233584
1.440000,	0.245347
1.464000,	0.257109
1.488000,	0.268871
1.512000,	0.274752
1.536000,	0.274752
1.560000,	0.274752
1.584000,	0.274752
1.608000,	0.274752
1.632000,	0.274752
1.656000,	0.274752
1.680000,	0.274752
1.704000,	0.274752
1.728000,	0.274752
1.752000,	0.274752
1.776000,	0.274752
1.800000,	0.274752
1.824000,	0.274752
1.848000,	0.274752
1.872000,	0.274752
1.896000,	0.274752
1.920000,	0.274752
1.944000,	0.274752
1.968000,	0.274752
1.992000,	0.274752
2.016000,	0.274752
2.040000,	0.274752
2.064000,	0.274752
2.088000,	0.274752
2.112000,	0.274752
2.136000,	0.274752
2.160000,	0.274752
2.184000,	0.274752
2.208000,	0.274752
2.232000,	0.274752
2.256000,	0.274752
2.280000,	0.274752
2.304000,	0.274752
2.328000,	0.274752
2.352000,	0.274752
2.376000,	0.274752
2.400000,	0.274752
2.424000,	0.274752
2.448000,	0.274752
2.472000,	0.274752
2.496000,	0.274752
2.520000,	0.274752
2.544000,	0.274752
2.568000,	0.274752
2.592000,	0.274752
2.616000,	0.274752
2.640000,	0.274752
2.664000,	0.274752
2.688000,	0.274752
2.712000,	0.274752
2.736000,	0.274752
2.760000,	0.274752
2.784000,	0.274752
2.808000,	0.274752
2.832000,	0.274752
2.856000,	0.274752
2.880000,	0.274752
2.904000,	0.274752
2.928000,	0.274752
2.952000,	0.274752
2.976000,	0.274752
3.000000,	0.274752
3.024000,	0.274752
3.048000,	0.274752
3.072000,	0.274752
3.096000,	0.274752
3.120000,	0.274752
3.144000,	0.274752
3.168000,	0.274752
3.192000,	0.274752
3.216000,	0.274752
3.240000,	0.274752
3.264000,	0.274752
3.288000,	0.274752
3.312000,	0.274752
3.336000,	0.274752
3.360000,	0.274752
3.384000,	0.274752
3.408000,	0.274752
3.432000,	0.274752
3.456000,	0.274752
3.480000,	0.274752
3.504000,	0.274752
3.528000,	0.274752
3.552000,	0.274752
3.576000,	0.274752
3.600000,	0.274752
3.624000,	0.274752
3.648000,	0.274752
3.672000,	0.274752
3.696000,	0.274752
3.720000,	0.274752
3.744000,	0.274752
3.768000,	0.274752
3.792000,	0.274752
3.816000,	0.274752
3.840000,	0.274752
3.864000,	0.274752
3.888000,	0.274752
3.912000,	0.274752
3.936000,	0.274752
3.960000,	0.274752
3.984000,	0.274752
4.008000,	0.274752
4.032000,	0.274752
4.056000,	0.274752
4.080000,	0.274752
4.104000,	0.274752
4.128000,	0.274752
4.152000,	0.274752
4.176000,	0.274752
4.200000,	0.274752
4.224000,	0.274752
4.248000,	0.274752
4.272000,	0.274752
4.296000,	0.274752
4.320000,	0.274752
4.344000,	0.274752
4.368000,	0.274752
4.392000,	0.274752
4.416000,	0.274752
4.440000,	0.274752
4.464000,	0.274752
4.488000,	0.274752
4.512000,	0.274752
4.536000,	0.274752
4.560000,	0.274752
4.584000,	0.274752
4.608000,	0.274752
4.632000,	0.274752
4.656000,	0.274752
4.680000,	0.274752
4.704000,	0.274752
4.728000,	0.274752
4.752000,	0.274752
4.776000,	0.274752
4.800000,	0.274752
4.824000,	0.274752
4.848000,	0.274752
4.872000,	0.274752
4.896000,	0.274752
4.920000,	0.274752
4.944000,	0.274752
4.968000,	0.274752
4.992000,	0.274752
5.016000,	0.274752
5.040000,	0.274752
5.064000,	0.274752
5.088000,	0.274752
5.112000,	0.274752
5.136000,	0.274752
5.160000,	0.274752
5.184000,	0.274752
5.208000,	0.274752
5.232000,	0.274752
5.256000,	0.274752
5.280000,	0.274752
5.304000,	0.274752
5.328000,	0.274752
5.352000,	0.274752
5.376000,	0.274752
5.400000,	0.274752
5.424000,	0.274752
5.448000,	0.274752
5.472000,	0.274752
5.496000,	0.274752
5.520000,	0.274752
5.544000,	0.274752
5.568000,	0.274752
5.592000,	0.274752
5.616000,	0.274752
5.640000,	0.274752
5.664000,	0.274752
5.688000,	0.274752
5.712000,	0.274752
5.736000,	0.274752
5.760000,	0.274752
5.784000,	0.274752
5.808000,	0.274752
5.832000,	0.274752
5.856000,	0.274752
5.880000,	0.274752
5.904000,	0.274752
5.928000,	0.274752
5.952000,	0.274752
5.976000,	0.274752
6.000000,	0.274752
0.000000,	0.044554
0.024000,	0.044554
0.048000,	0.044554
0.072000,	0.044554
0.096000,	0.044554
0.120000,	0.044554
0.144000,	0.044554
0.168000,	0.044554
0.192000,	0.044554
0.216000,	0.044554
0.240000,	0.044554
0.264000,	0.044554
0.288000,	0.044554
0.312000,	0.044554
0.336000,	0.044554
0.360000,	0.044554
0.384000,	0.044554
0.408000,	0.044554
0.432000,	0.044554
0.456000,	0.044554
0.480000,	0.044554
0.504000,	0.044554
0.528000,	0.044554
0.552000,	0.044554
0.576000,	0.044554
0.600000,	0.044554
0.624000,	0.044554
0.648000,	0.044554
0.672000,	0.044554
0.696000,	0.044554
0.720000,	0.044554
0.744000,	0.044554
0.768000,	0.044554
0.792000,	0.044554
0.816000,	0.044554
0.840000,	0.044554
0.864000,	0.044554
0.888000,	0.044554
0.912000,	0.044554
0.936000,	0.044554
0.960000,	0.044554
0.984000,	0.044554
1.008000,	0.048436
1.032000,	0.060079
1.056000,	0.071723
1.080000,	0.083366
1.104000,	0.095010
1.128000,	0.106653
1.152000,	0.118297
1.176000,	0.129941
1.200000,	0.141584
1.224000,	0.153228
1.248000,	0.164871
1.272000,	0.176515
1.296000,	0.188158
1.320000,	0.199802
1.344000,	0.211446
1.368000,	0.223089
1.392000,	0.234733
1.416000,	0.246376
1.440000,	0.258020
1.464000,	0.269663
1.488000,	0.281307
1.512000,	0.287129
1.536000,	0.287129
1.560000,	0.287129
1.584000,	0.287129
1.608000,	0.287129
1.632000,	0.287129
1.656000,	0.287129
1.680000,	0.287129
1.704000,	0.287129
1.728000,	0.287129
1.752000,	0.287129
1.776000,	0.287129
1.800000,	0.287129
1.824000,	0.287129
1.848000,	0.287129
1.872000,	0.287129
1.896000,	0.287129
1.920000,	0.287129
1.944000,	0.287129
1.968000,	0.287129
1.992000,	0.287129
2.016000,	0.287129
2.040000,	0.287129
2.064000,	0.287129
2.088000,	0.287129
2.112000,	0.287129
2.136000,	0.287129
2.160000,	0.287129
2.184000,	0.287129
2.208000,	0.287129
2.232000,	0.287129
2.256000,	0.287129
2.280000,	0.287129
2.304000,	0.287129
2.328000,	0.287129
2.352000,	0.287129
2.376000,	0.287129
2.400000,	0.287129
2.424000,	0.287129
2.448000,	0.287129
2.472000,	0.287129
2.496000,	0.287129
2.520000,	0.287129
2.544000,	0.287129
2.568000,	0.287129
2.592000,	0.287129
2.616000,	0.287129
2.640000,	0.287129
2.664000,	0.287129
2.688000,	0.287129
2.712000,	0.287129
2.736000,	0.287129
2.760000,	0.287129
2.784000,	0.287129
2.808000,	0.287129
2.832000,	0.287129
2.856000,	0.287129
2.880000,	0.287129
2.904000,	0.287129
2.928000,	0.287129
2.952000,	0.287129
2.976000,	0.287129
3.000000,	0.287129
3.024000,	0.287129
3.048000,	0.287129
3.072000,	0.287129
3.096000,	0.287129
3.120000,	0.287129
3.144000,	0.287129
3.168000,	0.287129
3.192000,	0.287129
3.216000,	0.287129
3.240000,	0.287129
3.264000,	0.287129
3.288000,	0.287129
3.312000,	0.287129
3.336000,	0.287129
3.360000,	0.287129
3.384000,	0.287129
3.408000,	0.287129
3.432000,	0.287129
3.456000,	0.287129
3.480000,	0.287129
3.504000,	0.287129
3.528000,	0.287129
3.552000,	0.287129
3.576000,	0.287129
3.600000,	0.287129
3.624000,	0.287129
3.648000,	0.287129
3.672000,	0.287129
3.696000,	0.287129
3.720000,	0.287129
3.744000,	0.287129
3.768000,	0.287129
3.792000,	0.287129
3.816000,	0.287129
3.840000,	0.287129
3.864000,	0.287129
3.888000,	0.287129
3.912000,	0.287129
3.936000,	0.287129
3.960000,	0.287129
3.984000,	0.287129
4.008000,	0.287129
4.032000,	0.287129
4.056000,	0.287129
4.080000,	0.287129
4.104000,	0.287129
4.128000,	0.287129
4.152000,	0.287129
4.176000,	0.287129
4.200000,	0.287129
4.224000,	0.287129
4.248000,	0.287129
4.272000,	0.287129
4.296000,	0.287129
4.320000,	0.287129
4.344000,	0.287129
4.368000,	0.287129
4.392000,	0.287129
4.416000,	0.287129
4.440000,	0.287129
4.464000,	0.287129
4.488000,	0.287129
4.512000,	0.287129
4.536000,	0.287129
4.560000,	0.287129
4.584000,	0.287129
4.608000,	0.287129
4.632000,	0.287129
4.656000,	0.287129
4.680000,	0.287129
4.704000,	0.287129
4.728000,	0.287129
4.752000,	0.287129
4.776000,	0.287129
4.800000,	0.287129
4.824000,	0.287129
4.848000,	0.287129
4.872000,	0.287129
4.896000,	0.287129
4.920000,	0.287129
4.944000,	0.287129
4.968000,	0.287129
4.992000,	0.287129
5.016000,	0.287129
5.040000,	0.287129
5.064000,	0.287129
5.088000,	0.287129
5.112000,	0.287129
5.136000,	0.287129
5.160000,	0.287129
5.184000,	0.287129
5.208000,	0.287129
5.232000,	0.287129
5.256000,	0.287129
5.280000,	0.287129
5.304000,	0.287129
5.328000,	0.287129
5.352000,	0.287129
5.376000,	0.287129
5.400000,	0.287129
5.424000,	0.287129
5.448000,	0.287129
5.472000,	0.287129
5.496000,	0.287129
5.520000,	0.287129
5.544000,	0.287129
5.568000,	0.287129
5.592000,	0.287129
5.616000,	0.287129
5.640000,	0.287129
5.664000,	0.287129
5.688000,	0.287129
5.712000,	0.287129
5.736000,	0.287129
5.760000,	0.287129
5.784000,	0.287129
5.808000,	0.287129
5.832000,	0.287129
5.856000,	0.287129
5.880000,	0.287129
5.904000,	0.287129
5.928000,	0.287129
5.952000,	0.287129
5.976000,	0.287129
6.000000,	0.287129
0.000000,	0.059406
0.024000,	0.059406
0.048000,	0.059406
0.072000,	0.059406
0.096000,	0.059406
0.120000,	0.059406
0.144000,	0.059406
0.168000,	0.059406
0.192000,	0.059406
0.216000,	0.059406
0.240000,	0.059406
0.264000,	0.059406
0.288000,	0.059406
0.312000,	0.059406
0.336000,	0.059406
0.360000,	0.059406
0.384000,	0.059406
0.408000,	0.059406
0.432000,	0.059406
0.456000,	0.059406
0.480000,	0.059406
0.504000,	0.059406
0.528000,	0.059406
0.552000,	0.059406
0.576000,	0.059406
0.600000,	0.059406
0.624000,	0.059406
0.648000,	0.059406
0.672000,	0.059406
0.696000,	0.059406
0.720000,	0.059406
0.744000,	0.059406
0.768000,	0.059406
0.792000,	0.059406
0.816000,	0.059406
0.840000,	0.059406
0.864000,	0.059406
0.888000,	0.059406
0.912000,	0.059406
0.936000,	0.059406
0.960000,	0.059406
0.984000,	0.059406
1.008000,	0.063248
1.032000,	0.074772
1.056000,	0.086297
1.080000,	0.097822
1.104000,	0.109347
1.128000,	0.120871
1.152000,	0.132396
1.176000,	0.143921
1.200000,	0.155446
1.224000,	0.166970
1.248000,	0.178495
1.272000,	0.190020
1.296000,	0.201545
1.320000,	0.213069
1.344000,	0.224594
1.368000,	0.236119
1.392000,	0.247644
1.416000,	0.259168
1.440000,	0.270693
1.464000,	0.282218
1.488000,	0.293743
1.512000,	0.299505
1.536000,	0.299505
1.560000,	0.299505
1.584000,	0.299505
1.608000,	0.299505
1.632000,	0.299505
1.656000,	0.299505
1.680000,	0.299505
1.704000,	0.299505
1.728000,	0.299505
1.752000,	0.299505
1.776000,	0.299505
1.800000,	0.299505
1.824000,	0.299505
1.848000,	0.299505
1.872000,	0.299505
1.896000,	0.299505
1.920000,	0.299505
1.944000,	0.299505
1.968000,	0.299505
1.992000,	0.299505
2.016000,	0.299505
2.040000,	0.299505
2.064000,	0.299505
2.088000,	0.299505
2.112000,	0.299505
2.136000,	0.299505
2.160000,	0.299505
2.184000,	0.299505
2.208000,	0.299505
2.232000,	0.299505
2.256000,	0.299505
2.280000,	0.299505
2.304000,	0.299505
2.328000,	0.299505
2.352000,	0.299505
2.376000,	0.299505
2.400000,	0.299505
2.424000,	0.299505
2.448000,	0.299505
2.472000,	0.299505
2.496000,	0.299505
2.520000,	0.299505
2.544000,	0.299505
2.568000,	0.299505
2.592000,	0.299505
2.616000,	0.299505
2.640000,	0.299505
2.664000,	0.299505
2.688000,	0.299505
2.712000,	0.299505
2.736000,	0.299505
2.760000,	0.299505
2.784000,	0.299505
2.808000,	0.299505
2.832000,	0.299505
2.856000,	0.299505
2.880000,	0.299505
2.904000,	0.299505
2.928000,	0.299505
2.952000,	0.299505
2.976000,	0.299505
3.000000,	0.299505
3.024000,	0.299505
3.048000,	0.299505
3.072000,	0.299505
3.096000,	0.299505
3.120000,	0.299505
3.144000,	0.299505
3.168000,	0.299505
3.192000,	0.299505
3.216000,	0.299505
3.240000,	0.299505
3.264000,	0.299505
3.288000,	0.299505
3.312000,	0.299505
3.336000,	0.299505
3.360000,	0.299505
3.384000,	0.299505
3.408000,	0.299505
3.432000,	0.299505
3.456000,	0.299505
3.480000,	0.299505
3.504000,	0.299505
3.528000,	0.299505
3.552000,	0.299505
3.576000,	0.299505
3.600000,	0.299505
3.624000,	0.299505
3.648000,	0.299505
3.672000,	0.299505
3.696000,	0.299505
3.720000,	0.299505
3.744000,	0.299505
3.768000,	0.299505
3.792000,	0.299505
3.816000,	0.299505
3.840000,	0.299505
3.864000,	0.299505
3.888000,	0.299505
3.912000,	0.299505
3.936000,	0.299505
3.960000,	0.299505
3.984000,	0.299505
4.008000,	0.299505
4.032000,	0.299505
4.056000,	0.299505
4.080000,	0.299505
4.104000,	0.299505
4.128000,	0.299505
4.152000,	0.299505
4.176000,	0.299505
4.200000,	0.299505
4.224000,	0.299505
4.248000,	0.299505
4.272000,	0.299505
4.296000,	0.299505
4.320000,	0.299505
4.344000,	0.299505
4.368000,	0.299505
4.392000,	0.299505
4.416000,	0.299505
4.440000,	0.299505
4.464000,	0.299505
4.488000,	0.299505
4.512000,	0.299505
4.536000,	0.299505
4.560000,	0.299505
4.584000,	0.299505
4.608000,	0.299505
4.632000,	0.299505
4.656000,	0.299505
4.680000,	0.299505
4.704000,	0.299505
4.728000,	0.299505
4.752000,	0.299505
4.776000,	0.299505
4.800000,	0.299505
4.824000,	0.299505
4.848000,	0.299505
4.872000,	0.299505
4.896000,	0.299505
4.920000,	0.299505
4.944000,	0.299505
4.968000,	0.299505
4.992000,	0.299505
5.016000,	0.299505
5.040000,	0.299505
5.064000,	0.299505
5.088000,	0.299505
5.112000,	0.299505
5.136000,	0.299505
5.160000,	0.299505
5.184000,	0.299505
5.208000,	0.299505
5.232000,	0.299505
5.256000,	0.299505
5.280000,	0.299505
5.304000,	0.299505
5.328000,	0.299505
5.352000,	0.299505
5.376000,	0.299505
5.400000,	0.299505
5.424000,	0.299505
5.448000,	0.299505
5.472000,	0.299505
5.496000,	0.299505
5.520000,	0.299505
5.544000,	0.299505
5.568000,	0.299505
5.592000,	0.299505
5.616000,	0.299505
5.640000,	0.299505
5.664000,	0.299505
5.688000,	0.299505
5.712000,	0.299505
5.736000,	0.299505
5.760000,	0.299505
5.784000,	0.299505
5.808000,	0.299505
5.832000,	0.299505
5.856000,	0.299505
5.880000,	0.299505
5.904000,	0.299505
5.928000,	0.299505
5.952000,	0.299505
5.976000,	0.299505
6.000000,	0.299505
0.000000,	0.074257
0.024000,	0.074257
0.048000,	0.074257
0.072000,	0.074257
0.096000,	0.074257
0.120000,	0.074257
0.144000,	0.074257
0.168000,	0.074257
0.192000,	0.074257
0.216000,	0.074257
0.240000,	0.074257
0.264000,	0.074257
0.288000,	0.074257
0.312000,	0.074257
0.336000,	0.074257
0.360000,	0.074257
0.384000,	0.074257
0.408000,	0.074257
0.432000,	0.074257
0.456000,	0.074257
0.480000,	0.074257
0.504000,	0.074257
0.528000,	0.074257
0.552000,	0.074257
0.576000,	0.074257
0.600000,	0.074257
0.624000,	0.074257
0.648000,	0.074257
0.672000,	0.074257
0.696000,	0.074257
0.720000,	0.074257
0.744000,	0.074257
0.768000,	0.074257
0.792000,	0.074257
0.816000,	0.074257
0.840000,	0.074257
0.864000,	0.074257
0.888000,	0.074257
0.912000,	0.074257
0.936000,	0.074257
0.960000,	0.074257
0.984000,	0.074257
1.008000,	0.078059
1.032000,	0.089465
1.056000,	0.100871
1.080000,	0.112277
1.104000,	0.123683
1.128000,	0.135089
1.152000,	0.146495
1.176000,	0.157901
1.200000,	0.169307
1.224000,	0.180713
1.248000,	0.192119
1.272000,	0.203525
1.296000,	0.214931
1.320000,	0.226337
1.344000,	0.237743
1.368000,	0.249149
1.392000,	0.260554
1.416000,	0.271960
1.440000,	0.283366
1.464000,	0.294772
1.488000,	0.306178
1.512000,	0.311881
1.536000,	0.311881
1.560000,	0.311881
1.584000,	0.311881
1.608000,	0.311881
1.632000,	0.311881
1.656000,	0.311881
1.680000,	0.311881
1.704000,	0.311881
1.728000,	0.311881
1.752000,	0.311881
1.776000,	0.311881
1.800000,	0.311881
1.824000,	0.311881
1.848000,	0.311881
1.872000,	0.311881
1.896000,	0.311881
1.920000,	0.311881
1.944000,	0.311881
1.968000,	0.311881
1.992000,	0.311881
2.016000,	0.311881
2.040000,	0.311881
2.064000,	0.311881
2.088000,	0.311881
2.112000,	0.311881
2.136000,	0.311881
2.160000,	0.311881
2.184000,	0.311881
2.208000,	0.311881
2.232000,	0.311881
2.256000,	0.311881
2.280000,	0.311881
2.304000,	0.311881
2.328000,	0.311881
2.352000,	0.311881
2.376000,	0.311881
2.400000,	0.311881
2.424000,	0.311881
2.448000,	0.311881
2.472000,	0.311881
2.496000,	0.311881
2.520000,	0.311881
2.544000,	0.311881
2.568000,	0.311881
2.592000,	0.311881
2.616000,	0.311881
2.640000,	0.311881
2.664000,	0.311881
2.688000,	0.311881
2.712000,	0.311881
2.736000,	0.311881
2.760000,	0.311881
2.784000,	0.311881
2.808000,	0.311881
2.832000,	0.311881
2.856000,	0.311881
2.880000,	0.311881
2.904000,	0.311881
2.928000,	0.311881
2.952000,	0.311881
2.976000,	0.311881
3.000000,	0.311881
3.024000,	0.311881
3.048000,	0.311881
3.072000,	0.311881
3.096000,	0.311881
3.120000,	0.311881
3.144000,	0.311881
3.168000,	0.311881
3.192000,	0.311881
3.216000,	0.311881
3.240000,	0.311881
3.264000,	0.311881
3.288000,	0.311881
3.312000,	0.311881
3.336000,	0.311881
3.360000,	0.311881
3.384000,	0.311881
3.408000,	0.311881
3.432000,	0.311881
3.456000,	0.311881
3.480000,	0.311881
3.504000,	0.311881
3.528000,	0.311881
3.552000,	0.311881
3.576000,	0.311881
3.600000,	0.311881
3.624000,	0.311881
3.648000,	0.311881
3.672000,	0.311881
3.696000,	0.311881
3.720000,	0.311881
3.744000,	0.311881
3.768000,	0.311881
3.792000,	0.311881
3.816000,	0.311881
3.840000,	0.311881
3.864000,	0.311881
3.888000,	0.311881
3.912000,	0.311881
3.936000,	0.311881
3.960000,	0.311881
3.984000,	0.311881
4.008000,	0.311881
4.032000,	0.311881
4.056000,	0.311881
4.080000,	0.311881
4.104000,	0.311881
4.128000,	0.311881
4.152000,	0.311881
4.176000,	0.311881
4.200000,	0.311881
4.224000,	0.311881
4.248000,	0.311881
4.272000,	0.311881
4.296000,	0.311881
4.320000,	0.311881
4.344000,	0.311881
4.368000,	0.311881
4.392000,	0.311881
4.416000,	0.311881
4.440000,	0.311881
4.464000,	0.311881
4.488000,	0.311881
4.512000,	0.311881
4.536000,	0.311881
4.560000,	0.311881
4.584000,	0.311881
4.608000,	0.311881
4.632000,	0.311881
4.656000,	0.311881
4.680000,	0.311881
4.704000,	0.311881
4.728000,	0.311881
4.752000,	0.311881
4.776000,	0.311881
4.800000,	0.311881
4.824000,	0.311881
4.848000,	0.311881
4.872000,	0.311881
4.896000,	0.311881
4.920000,	0.311881
4.944000,	0.311881
4.968000,	0.311881
4.992000,	0.311881
5.016000,	0.311881
5.040000,	0.311881
5.064000,	0.311881
5.088000,	0.311881
5.112000,	0.311881
5.136000,	0.311881
5.160000,	0.311881
5.184000,	0.311881
5.208000,	0.311881
5.232000,	0.311881
5.256000,	0.311881
5.280000,	0.311881
5.304000,	0.311881
5.328000,	0.311881
5.352000,	0.311881
5.376000,	0.311881
5.400000,	0.311881
5.424000,	0.311881
5.448000,	0.311881
5.472000,	0.311881
5.496000,	0.311881
5.520000,	0.311881
5.544000,	0.311881
5.568000,	0.311881
5.592000,	0.311881
5.616000,	0.311881
5.640000,	0.311881
5.664000,	0.311881
5.688000,	0.311881
5.712000,	0.311881
5.736000,	0.311881
5.760000,	0.311881
5.784000,	0.311881
5.808000,	0.311881
5.832000,	0.311881
5.856000,	0.311881
5.880000,	0.311881
5.904000,	0.311881
5.928000,	0.311881
5.952000,	0.311881
5.976000,	0.311881
6.000000,	0.311881
0.000000,	0.089109
0.024000,	0.089109
0.048000,	0.089109
0.072000,	0.089109
0.096000,	0.089109
0.120000,	0.089109
0.144000,	0.089109
0.168000,	0.089109
0.192000,	0.089109
0.216000,	0.089109
0.240000,	0.089109
0.264000,	0.089109
0.288000,	0.089109
0.312000,	0.089109
0.336000,	0.089109
0.360000,	0.089109
0.384000,	0.089109
0.408000,	0.089109
0.432000,	0.089109
0.456000,	0.089109
0.480000,	0.089109
0.504000,	0.089109
0.528000,	0.089109
0.552000,	0.089109
0.576000,	0.089109
0.600000,	0.089109
0.624000,	0.089109
0.648000,	0.089109
0.672000,	0.089109
0.696000,	0.089109
0.720000,	0.089109
0.744000,	0.089109
0.768000,	0.089109
0.792000,	0.089109
0.816000,	0.089109
0.840000,	0.089109
0.864000,	0.089109
0.888000,	0.089109
0.912000,	0.089109
0.936000,	0.089109
0.960000,	0.089109
0.984000,	0.089109
1.008000,	0.092871
1.032000,	0.104158
1.056000,	0.115446
1.080000,	0.126733
1.104000,	0.138020
1.128000,	0.149307
1.152000,	0.160594
1.176000,	0.171881
1.200000,	0.183168
1.224000,	0.194455
1.248000,	0.205743
1.272000,	0.217030
1.296000,	0.228317
1.320000,	0.239604
1.344000,	0.250891
1.368000,	0.262178
1.392000,	0.273465
1.416000,	0.284752
1.440000,	0.296040
1.464000,	0.307327
1.488000,	0.318614
1.512000,	0.324257
1.536000,	0.324257
1.560000,	0.324257
1.584000,	0.324257
1.608000,	0.324257