TITLE = "2DRampMesh"
VARIABLES = "X", "Y"
ZONE I=101, J=401, DATAPACKING=POINT
0.000000,	0.000000
0.025000,	0.018500
0.050000,	0.037000
0.075000,	0.055500
0.100000,	0.074000
0.125000,	0.092500
0.150000,	0.111000
0.175000,	0.129500
0.200000,	0.148000
0.225000,	0.166500
0.250000,	0.185000
0.275000,	0.203500
0.300000,	0.222000
0.325000,	0.240500
0.350000,	0.259000
0.375000,	0.277500
0.400000,	0.296000
0.425000,	0.314500
0.450000,	0.333000
0.475000,	0.351500
0.500000,	0.370000
0.525000,	0.388500
0.550000,	0.407000
0.575000,	0.425500
0.600000,	0.444000
0.625000,	0.462500
0.650000,	0.481000
0.675000,	0.499500
0.700000,	0.518000
0.725000,	0.536500
0.750000,	0.555000
0.775000,	0.550250
0.800000,	0.545500
0.825000,	0.540750
0.850000,	0.536000
0.875000,	0.531250
0.900000,	0.526500
0.925000,	0.521750
0.950000,	0.517000
0.975000,	0.512250
1.000000,	0.507500
1.025000,	0.502750
1.050000,	0.498000
1.075000,	0.493250
1.100000,	0.488500
1.125000,	0.483750
1.150000,	0.479000
1.175000,	0.474250
1.200000,	0.469500
1.225000,	0.464750
1.250000,	0.460000
1.275000,	0.455250
1.300000,	0.450500
1.325000,	0.445750
1.350000,	0.441000
1.375000,	0.436250
1.400000,	0.431500
1.425000,	0.426750
1.450000,	0.422000
1.475000,	0.417250
1.500000,	0.412500
1.525000,	0.407750
1.550000,	0.403000
1.575000,	0.398250
1.600000,	0.393500
1.625000,	0.388750
1.650000,	0.384000
1.675000,	0.379250
1.700000,	0.374500
1.725000,	0.369750
1.750000,	0.365000
1.775000,	0.360250
1.800000,	0.355500
1.825000,	0.350750
1.850000,	0.346000
1.875000,	0.341250
1.900000,	0.336500
1.925000,	0.331750
1.950000,	0.327000
1.975000,	0.322250
2.000000,	0.317500
2.025000,	0.312750
2.050000,	0.308000
2.075000,	0.303250
2.100000,	0.298500
2.125000,	0.293750
2.150000,	0.289000
2.175000,	0.284250
2.200000,	0.279500
2.225000,	0.274750
2.250000,	0.270000
2.275000,	0.265250
2.300000,	0.260500
2.325000,	0.255750
2.350000,	0.251000
2.375000,	0.246250
2.400000,	0.241500
2.425000,	0.236750
2.450000,	0.232000
2.475000,	0.227250
2.500000,	0.222500
0.000000,	0.000008
0.025000,	0.018508
0.050000,	0.037008
0.075000,	0.055507
0.100000,	0.074007
0.125000,	0.092507
0.150000,	0.111007
0.175000,	0.129507
0.200000,	0.148007
0.225000,	0.166507
0.250000,	0.185007
0.275000,	0.203507
0.300000,	0.222006
0.325000,	0.240506
0.350000,	0.259006
0.375000,	0.277506
0.400000,	0.296006
0.425000,	0.314506
0.450000,	0.333006
0.475000,	0.351506
0.500000,	0.370006
0.525000,	0.388505
0.550000,	0.407005
0.575000,	0.425505
0.600000,	0.444005
0.625000,	0.462505
0.650000,	0.481005
0.675000,	0.499505
0.700000,	0.518005
0.725000,	0.536504
0.750000,	0.555004
0.775000,	0.550254
0.800000,	0.545504
0.825000,	0.540754
0.850000,	0.536004
0.875000,	0.531255
0.900000,	0.526505
0.925000,	0.521755
0.950000,	0.517005
0.975000,	0.512255
1.000000,	0.507505
1.025000,	0.502755
1.050000,	0.498005
1.075000,	0.493255
1.100000,	0.488505
1.125000,	0.483755
1.150000,	0.479005
1.175000,	0.474255
1.200000,	0.469505
1.225000,	0.464755
1.250000,	0.460005
1.275000,	0.455255
1.300000,	0.450505
1.325000,	0.445755
1.350000,	0.441005
1.375000,	0.436255
1.400000,	0.431505
1.425000,	0.426755
1.450000,	0.422005
1.475000,	0.417255
1.500000,	0.412505
1.525000,	0.407755
1.550000,	0.403005
1.575000,	0.398255
1.600000,	0.393505
1.625000,	0.388755
1.650000,	0.384005
1.675000,	0.379255
1.700000,	0.374505
1.725000,	0.369756
1.750000,	0.365006
1.775000,	0.360256
1.800000,	0.355506
1.825000,	0.350756
1.850000,	0.346006
1.875000,	0.341256
1.900000,	0.336506
1.925000,	0.331756
1.950000,	0.327006
1.975000,	0.322256
2.000000,	0.317506
2.025000,	0.312756
2.050000,	0.308006
2.075000,	0.303256
2.100000,	0.298506
2.125000,	0.293756
2.150000,	0.289006
2.175000,	0.284256
2.200000,	0.279506
2.225000,	0.274756
2.250000,	0.270006
2.275000,	0.265256
2.300000,	0.260506
2.325000,	0.255756
2.350000,	0.251006
2.375000,	0.246256
2.400000,	0.241506
2.425000,	0.236756
2.450000,	0.232006
2.475000,	0.227256
2.500000,	0.222506
0.000000,	0.000031
0.025000,	0.018531
0.050000,	0.037030
0.075000,	0.055530
0.100000,	0.074029
0.125000,	0.092529
0.150000,	0.111029
0.175000,	0.129528
0.200000,	0.148028
0.225000,	0.166527
0.250000,	0.185027
0.275000,	0.203526
0.300000,	0.222026
0.325000,	0.240525
0.350000,	0.259025
0.375000,	0.277524
0.400000,	0.296024
0.425000,	0.314523
0.450000,	0.333023
0.475000,	0.351523
0.500000,	0.370022
0.525000,	0.388522
0.550000,	0.407021
0.575000,	0.425521
0.600000,	0.444020
0.625000,	0.462520
0.650000,	0.481019
0.675000,	0.499519
0.700000,	0.518018
0.725000,	0.536518
0.750000,	0.555017
0.775000,	0.550268
0.800000,	0.545518
0.825000,	0.540768
0.850000,	0.536018
0.875000,	0.531268
0.900000,	0.526518
0.925000,	0.521768
0.950000,	0.517018
0.975000,	0.512269
1.000000,	0.507519
1.025000,	0.502769
1.050000,	0.498019
1.075000,	0.493269
1.100000,	0.488519
1.125000,	0.483769
1.150000,	0.479019
1.175000,	0.474269
1.200000,	0.469520
1.225000,	0.464770
1.250000,	0.460020
1.275000,	0.455270
1.300000,	0.450520
1.325000,	0.445770
1.350000,	0.441020
1.375000,	0.436270
1.400000,	0.431521
1.425000,	0.426771
1.450000,	0.422021
1.475000,	0.417271
1.500000,	0.412521
1.525000,	0.407771
1.550000,	0.403021
1.575000,	0.398271
1.600000,	0.393521
1.625000,	0.388772
1.650000,	0.384022
1.675000,	0.379272
1.700000,	0.374522
1.725000,	0.369772
1.750000,	0.365022
1.775000,	0.360272
1.800000,	0.355522
1.825000,	0.350773
1.850000,	0.346023
1.875000,	0.341273
1.900000,	0.336523
1.925000,	0.331773
1.950000,	0.327023
1.975000,	0.322273
2.000000,	0.317523
2.025000,	0.312773
2.050000,	0.308024
2.075000,	0.303274
2.100000,	0.298524
2.125000,	0.293774
2.150000,	0.289024
2.175000,	0.284274
2.200000,	0.279524
2.225000,	0.274774
2.250000,	0.270025
2.275000,	0.265275
2.300000,	0.260525
2.325000,	0.255775
2.350000,	0.251025
2.375000,	0.246275
2.400000,	0.241525
2.425000,	0.236775
2.450000,	0.232026
2.475000,	0.227276
2.500000,	0.222526
0.000000,	0.000070
0.025000,	0.018569
0.050000,	0.037068
0.075000,	0.055567
0.100000,	0.074066
0.125000,	0.092565
0.150000,	0.111064
0.175000,	0.129563
0.200000,	0.148062
0.225000,	0.166561
0.250000,	0.185060
0.275000,	0.203559
0.300000,	0.222058
0.325000,	0.240557
0.350000,	0.259056
0.375000,	0.277555
0.400000,	0.296054
0.425000,	0.314553
0.450000,	0.333052
0.475000,	0.351551
0.500000,	0.370050
0.525000,	0.388549
0.550000,	0.407048
0.575000,	0.425547
0.600000,	0.444046
0.625000,	0.462544
0.650000,	0.481043
0.675000,	0.499542
0.700000,	0.518041
0.725000,	0.536540
0.750000,	0.555039
0.775000,	0.550290
0.800000,	0.545540
0.825000,	0.540790
0.850000,	0.536040
0.875000,	0.531291
0.900000,	0.526541
0.925000,	0.521791
0.950000,	0.517041
0.975000,	0.512292
1.000000,	0.507542
1.025000,	0.502792
1.050000,	0.498042
1.075000,	0.493293
1.100000,	0.488543
1.125000,	0.483793
1.150000,	0.479044
1.175000,	0.474294
1.200000,	0.469544
1.225000,	0.464794
1.250000,	0.460045
1.275000,	0.455295
1.300000,	0.450545
1.325000,	0.445795
1.350000,	0.441046
1.375000,	0.436296
1.400000,	0.431546
1.425000,	0.426796
1.450000,	0.422047
1.475000,	0.417297
1.500000,	0.412547
1.525000,	0.407798
1.550000,	0.403048
1.575000,	0.398298
1.600000,	0.393548
1.625000,	0.388799
1.650000,	0.384049
1.675000,	0.379299
1.700000,	0.374549
1.725000,	0.369800
1.750000,	0.365050
1.775000,	0.360300
1.800000,	0.355550
1.825000,	0.350801
1.850000,	0.346051
1.875000,	0.341301
1.900000,	0.336552
1.925000,	0.331802
1.950000,	0.327052
1.975000,	0.322302
2.000000,	0.317553
2.025000,	0.312803
2.050000,	0.308053
2.075000,	0.303303
2.100000,	0.298554
2.125000,	0.293804
2.150000,	0.289054
2.175000,	0.284304
2.200000,	0.279555
2.225000,	0.274805
2.250000,	0.270055
2.275000,	0.265306
2.300000,	0.260556
2.325000,	0.255806
2.350000,	0.251056
2.375000,	0.246307
2.400000,	0.241557
2.425000,	0.236807
2.450000,	0.232057
2.475000,	0.227308
2.500000,	0.222558
0.000000,	0.000125
0.025000,	0.018623
0.050000,	0.037121
0.075000,	0.055620
0.100000,	0.074118
0.125000,	0.092616
0.150000,	0.111114
0.175000,	0.129612
0.200000,	0.148110
0.225000,	0.166609
0.250000,	0.185107
0.275000,	0.203605
0.300000,	0.222103
0.325000,	0.240601
0.350000,	0.259099
0.375000,	0.277598
0.400000,	0.296096
0.425000,	0.314594
0.450000,	0.333092
0.475000,	0.351590
0.500000,	0.370088
0.525000,	0.388586
0.550000,	0.407085
0.575000,	0.425583
0.600000,	0.444081
0.625000,	0.462579
0.650000,	0.481077
0.675000,	0.499575
0.700000,	0.518074
0.725000,	0.536572
0.750000,	0.555070
0.775000,	0.550320
0.800000,	0.545571
0.825000,	0.540821
0.850000,	0.536072
0.875000,	0.531322
0.900000,	0.526573
0.925000,	0.521823
0.950000,	0.517074
0.975000,	0.512324
1.000000,	0.507575
1.025000,	0.502825
1.050000,	0.498076
1.075000,	0.493326
1.100000,	0.488576
1.125000,	0.483827
1.150000,	0.479077
1.175000,	0.474328
1.200000,	0.469578
1.225000,	0.464829
1.250000,	0.460079
1.275000,	0.455330
1.300000,	0.450580
1.325000,	0.445831
1.350000,	0.441081
1.375000,	0.436332
1.400000,	0.431582
1.425000,	0.426833
1.450000,	0.422083
1.475000,	0.417334
1.500000,	0.412584
1.525000,	0.407835
1.550000,	0.403085
1.575000,	0.398335
1.600000,	0.393586
1.625000,	0.388836
1.650000,	0.384087
1.675000,	0.379337
1.700000,	0.374588
1.725000,	0.369838
1.750000,	0.365089
1.775000,	0.360339
1.800000,	0.355590
1.825000,	0.350840
1.850000,	0.346091
1.875000,	0.341341
1.900000,	0.336592
1.925000,	0.331842
1.950000,	0.327093
1.975000,	0.322343
2.000000,	0.317594
2.025000,	0.312844
2.050000,	0.308094
2.075000,	0.303345
2.100000,	0.298595
2.125000,	0.293846
2.150000,	0.289096
2.175000,	0.284347
2.200000,	0.279597
2.225000,	0.274848
2.250000,	0.270098
2.275000,	0.265349
2.300000,	0.260599
2.325000,	0.255850
2.350000,	0.251100
2.375000,	0.246351
2.400000,	0.241601
2.425000,	0.236852
2.450000,	0.232102
2.475000,	0.227353
2.500000,	0.222603
0.000000,	0.000196
0.025000,	0.018693
0.050000,	0.037190
0.075000,	0.055687
0.100000,	0.074184
0.125000,	0.092681
0.150000,	0.111178
0.175000,	0.129675
0.200000,	0.148173
0.225000,	0.166670
0.250000,	0.185167
0.275000,	0.203664
0.300000,	0.222161
0.325000,	0.240658
0.350000,	0.259155
0.375000,	0.277652
0.400000,	0.296149
0.425000,	0.314647
0.450000,	0.333144
0.475000,	0.351641
0.500000,	0.370138
0.525000,	0.388635
0.550000,	0.407132
0.575000,	0.425629
0.600000,	0.444126
0.625000,	0.462624
0.650000,	0.481121
0.675000,	0.499618
0.700000,	0.518115
0.725000,	0.536612
0.750000,	0.555109
0.775000,	0.550360
0.800000,	0.545611
0.825000,	0.540861
0.850000,	0.536112
0.875000,	0.531363
0.900000,	0.526614
0.925000,	0.521864
0.950000,	0.517115
0.975000,	0.512366
1.000000,	0.507617
1.025000,	0.502867
1.050000,	0.498118
1.075000,	0.493369
1.100000,	0.488619
1.125000,	0.483870
1.150000,	0.479121
1.175000,	0.474372
1.200000,	0.469622
1.225000,	0.464873
1.250000,	0.460124
1.275000,	0.455375
1.300000,	0.450625
1.325000,	0.445876
1.350000,	0.441127
1.375000,	0.436378
1.400000,	0.431628
1.425000,	0.426879
1.450000,	0.422130
1.475000,	0.417381
1.500000,	0.412631
1.525000,	0.407882
1.550000,	0.403133
1.575000,	0.398384
1.600000,	0.393634
1.625000,	0.388885
1.650000,	0.384136
1.675000,	0.379386
1.700000,	0.374637
1.725000,	0.369888
1.750000,	0.365139
1.775000,	0.360389
1.800000,	0.355640
1.825000,	0.350891
1.850000,	0.346142
1.875000,	0.341392
1.900000,	0.336643
1.925000,	0.331894
1.950000,	0.327145
1.975000,	0.322395
2.000000,	0.317646
2.025000,	0.312897
2.050000,	0.308148
2.075000,	0.303398
2.100000,	0.298649
2.125000,	0.293900
2.150000,	0.289151
2.175000,	0.284401
2.200000,	0.279652
2.225000,	0.274903
2.250000,	0.270154
2.275000,	0.265404
2.300000,	0.260655
2.325000,	0.255906
2.350000,	0.251156
2.375000,	0.246407
2.400000,	0.241658
2.425000,	0.236909
2.450000,	0.232159
2.475000,	0.227410
2.500000,	0.222661
0.000000,	0.000282
0.025000,	0.018778
0.050000,	0.037273
0.075000,	0.055769
0.100000,	0.074265
0.125000,	0.092761
0.150000,	0.111257
0.175000,	0.129753
0.200000,	0.148248
0.225000,	0.166744
0.250000,	0.185240
0.275000,	0.203736
0.300000,	0.222232
0.325000,	0.240728
0.350000,	0.259224
0.375000,	0.277719
0.400000,	0.296215
0.425000,	0.314711
0.450000,	0.333207
0.475000,	0.351703
0.500000,	0.370199
0.525000,	0.388694
0.550000,	0.407190
0.575000,	0.425686
0.600000,	0.444182
0.625000,	0.462678
0.650000,	0.481174
0.675000,	0.499670
0.700000,	0.518165
0.725000,	0.536661
0.750000,	0.555157
0.775000,	0.550408
0.800000,	0.545659
0.825000,	0.540910
0.850000,	0.536161
0.875000,	0.531412
0.900000,	0.526664
0.925000,	0.521915
0.950000,	0.517166
0.975000,	0.512417
1.000000,	0.507668
1.025000,	0.502919
1.050000,	0.498170
1.075000,	0.493421
1.100000,	0.488672
1.125000,	0.483923
1.150000,	0.479174
1.175000,	0.474425
1.200000,	0.469676
1.225000,	0.464927
1.250000,	0.460178
1.275000,	0.455429
1.300000,	0.450681
1.325000,	0.445932
1.350000,	0.441183
1.375000,	0.436434
1.400000,	0.431685
1.425000,	0.426936
1.450000,	0.422187
1.475000,	0.417438
1.500000,	0.412689
1.525000,	0.407940
1.550000,	0.403191
1.575000,	0.398442
1.600000,	0.393693
1.625000,	0.388944
1.650000,	0.384195
1.675000,	0.379447
1.700000,	0.374698
1.725000,	0.369949
1.750000,	0.365200
1.775000,	0.360451
1.800000,	0.355702
1.825000,	0.350953
1.850000,	0.346204
1.875000,	0.341455
1.900000,	0.336706
1.925000,	0.331957
1.950000,	0.327208
1.975000,	0.322459
2.000000,	0.317710
2.025000,	0.312961
2.050000,	0.308213
2.075000,	0.303464
2.100000,	0.298715
2.125000,	0.293966
2.150000,	0.289217
2.175000,	0.284468
2.200000,	0.279719
2.225000,	0.274970
2.250000,	0.270221
2.275000,	0.265472
2.300000,	0.260723
2.325000,	0.255974
2.350000,	0.251225
2.375000,	0.246476
2.400000,	0.241727
2.425000,	0.236979
2.450000,	0.232230
2.475000,	0.227481
2.500000,	0.222732
0.000000,	0.000383
0.025000,	0.018878
0.050000,	0.037372
0.075000,	0.055866
0.100000,	0.074361
0.125000,	0.092855
0.150000,	0.111349
0.175000,	0.129844
0.200000,	0.148338
0.225000,	0.166833
0.250000,	0.185327
0.275000,	0.203821
0.300000,	0.222316
0.325000,	0.240810
0.350000,	0.259304
0.375000,	0.277799
0.400000,	0.296293
0.425000,	0.314787
0.450000,	0.333282
0.475000,	0.351776
0.500000,	0.370270
0.525000,	0.388765
0.550000,	0.407259
0.575000,	0.425753
0.600000,	0.444248
0.625000,	0.462742
0.650000,	0.481236
0.675000,	0.499731
0.700000,	0.518225
0.725000,	0.536719
0.750000,	0.555214
0.775000,	0.550465
0.800000,	0.545717
0.825000,	0.540968
0.850000,	0.536220
0.875000,	0.531471
0.900000,	0.526723
0.925000,	0.521974
0.950000,	0.517225
0.975000,	0.512477
1.000000,	0.507728
1.025000,	0.502980
1.050000,	0.498231
1.075000,	0.493483
1.100000,	0.488734
1.125000,	0.483986
1.150000,	0.479237
1.175000,	0.474489
1.200000,	0.469740
1.225000,	0.464991
1.250000,	0.460243
1.275000,	0.455494
1.300000,	0.450746
1.325000,	0.445997
1.350000,	0.441249
1.375000,	0.436500
1.400000,	0.431752
1.425000,	0.427003
1.450000,	0.422254
1.475000,	0.417506
1.500000,	0.412757
1.525000,	0.408009
1.550000,	0.403260
1.575000,	0.398512
1.600000,	0.393763
1.625000,	0.389015
1.650000,	0.384266
1.675000,	0.379518
1.700000,	0.374769
1.725000,	0.370020
1.750000,	0.365272
1.775000,	0.360523
1.800000,	0.355775
1.825000,	0.351026
1.850000,	0.346278
1.875000,	0.341529
1.900000,	0.336781
1.925000,	0.332032
1.950000,	0.327283
1.975000,	0.322535
2.000000,	0.317786
2.025000,	0.313038
2.050000,	0.308289
2.075000,	0.303541
2.100000,	0.298792
2.125000,	0.294044
2.150000,	0.289295
2.175000,	0.284547
2.200000,	0.279798
2.225000,	0.275049
2.250000,	0.270301
2.275000,	0.265552
2.300000,	0.260804
2.325000,	0.256055
2.350000,	0.251307
2.375000,	0.246558
2.400000,	0.241810
2.425000,	0.237061
2.450000,	0.232313
2.475000,	0.227564
2.500000,	0.222815
0.000000,	0.000501
0.025000,	0.018993
0.050000,	0.037486
0.075000,	0.055979
0.100000,	0.074471
0.125000,	0.092964
0.150000,	0.111456
0.175000,	0.129949
0.200000,	0.148442
0.225000,	0.166934
0.250000,	0.185427
0.275000,	0.203920
0.300000,	0.222412
0.325000,	0.240905
0.350000,	0.259397
0.375000,	0.277890
0.400000,	0.296383
0.425000,	0.314875
0.450000,	0.333368
0.475000,	0.351860
0.500000,	0.370353
0.525000,	0.388846
0.550000,	0.407338
0.575000,	0.425831
0.600000,	0.444324
0.625000,	0.462816
0.650000,	0.481309
0.675000,	0.499801
0.700000,	0.518294
0.725000,	0.536787
0.750000,	0.555279
0.775000,	0.550531
0.800000,	0.545783
0.825000,	0.541035
0.850000,	0.536287
0.875000,	0.531539
0.900000,	0.526791
0.925000,	0.522043
0.950000,	0.517294
0.975000,	0.512546
1.000000,	0.507798
1.025000,	0.503050
1.050000,	0.498302
1.075000,	0.493554
1.100000,	0.488806
1.125000,	0.484058
1.150000,	0.479310
1.175000,	0.474562
1.200000,	0.469813
1.225000,	0.465065
1.250000,	0.460317
1.275000,	0.455569
1.300000,	0.450821
1.325000,	0.446073
1.350000,	0.441325
1.375000,	0.436577
1.400000,	0.431829
1.425000,	0.427080
1.450000,	0.422332
1.475000,	0.417584
1.500000,	0.412836
1.525000,	0.408088
1.550000,	0.403340
1.575000,	0.398592
1.600000,	0.393844
1.625000,	0.389096
1.650000,	0.384348
1.675000,	0.379599
1.700000,	0.374851
1.725000,	0.370103
1.750000,	0.365355
1.775000,	0.360607
1.800000,	0.355859
1.825000,	0.351111
1.850000,	0.346363
1.875000,	0.341615
1.900000,	0.336866
1.925000,	0.332118
1.950000,	0.327370
1.975000,	0.322622
2.000000,	0.317874
2.025000,	0.313126
2.050000,	0.308378
2.075000,	0.303630
2.100000,	0.298882
2.125000,	0.294134
2.150000,	0.289385
2.175000,	0.284637
2.200000,	0.279889
2.225000,	0.275141
2.250000,	0.270393
2.275000,	0.265645
2.300000,	0.260897
2.325000,	0.256149
2.350000,	0.251401
2.375000,	0.246652
2.400000,	0.241904
2.425000,	0.237156
2.450000,	0.232408
2.475000,	0.227660
2.500000,	0.222912
0.000000,	0.000634
0.025000,	0.019124
0.050000,	0.037615
0.075000,	0.056106
0.100000,	0.074596
0.125000,	0.093087
0.150000,	0.111578
0.175000,	0.130068
0.200000,	0.148559
0.225000,	0.167050
0.250000,	0.185540
0.275000,	0.204031
0.300000,	0.222522
0.325000,	0.241012
0.350000,	0.259503
0.375000,	0.277994
0.400000,	0.296484
0.425000,	0.314975
0.450000,	0.333466
0.475000,	0.351956
0.500000,	0.370447
0.525000,	0.388938
0.550000,	0.407428
0.575000,	0.425919
0.600000,	0.444410
0.625000,	0.462900
0.650000,	0.481391
0.675000,	0.499882
0.700000,	0.518372
0.725000,	0.536863
0.750000,	0.555353
0.775000,	0.550606
0.800000,	0.545858
0.825000,	0.541111
0.850000,	0.536363
0.875000,	0.531615
0.900000,	0.526868
0.925000,	0.522120
0.950000,	0.517373
0.975000,	0.512625
1.000000,	0.507877
1.025000,	0.503130
1.050000,	0.498382
1.075000,	0.493635
1.100000,	0.488887
1.125000,	0.484139
1.150000,	0.479392
1.175000,	0.474644
1.200000,	0.469897
1.225000,	0.465149
1.250000,	0.460401
1.275000,	0.455654
1.300000,	0.450906
1.325000,	0.446159
1.350000,	0.441411
1.375000,	0.436663
1.400000,	0.431916
1.425000,	0.427168
1.450000,	0.422421
1.475000,	0.417673
1.500000,	0.412925
1.525000,	0.408178
1.550000,	0.403430
1.575000,	0.398683
1.600000,	0.393935
1.625000,	0.389187
1.650000,	0.384440
1.675000,	0.379692
1.700000,	0.374945
1.725000,	0.370197
1.750000,	0.365449
1.775000,	0.360702
1.800000,	0.355954
1.825000,	0.351207
1.850000,	0.346459
1.875000,	0.341711
1.900000,	0.336964
1.925000,	0.332216
1.950000,	0.327469
1.975000,	0.322721
2.000000,	0.317973
2.025000,	0.313226
2.050000,	0.308478
2.075000,	0.303731
2.100000,	0.298983
2.125000,	0.294235
2.150000,	0.289488
2.175000,	0.284740
2.200000,	0.279993
2.225000,	0.275245
2.250000,	0.270497
2.275000,	0.265750
2.300000,	0.261002
2.325000,	0.256255
2.350000,	0.251507
2.375000,	0.246759
2.400000,	0.242012
2.425000,	0.237264
2.450000,	0.232517
2.475000,	0.227769
2.500000,	0.223021
0.000000,	0.000782
0.025000,	0.019271
0.050000,	0.037759
0.075000,	0.056248
0.100000,	0.074736
0.125000,	0.093225
0.150000,	0.111713
0.175000,	0.130202
0.200000,	0.148690
0.225000,	0.167179
0.250000,	0.185667
0.275000,	0.204156
0.300000,	0.222644
0.325000,	0.241132
0.350000,	0.259621
0.375000,	0.278109
0.400000,	0.296598
0.425000,	0.315086
0.450000,	0.333575
0.475000,	0.352063
0.500000,	0.370552
0.525000,	0.389040
0.550000,	0.407529
0.575000,	0.426017
0.600000,	0.444506
0.625000,	0.462994
0.650000,	0.481483
0.675000,	0.499971
0.700000,	0.518459
0.725000,	0.536948
0.750000,	0.555436
0.775000,	0.550689
0.800000,	0.545942
0.825000,	0.541195
0.850000,	0.536448
0.875000,	0.531701
0.900000,	0.526954
0.925000,	0.522207
0.950000,	0.517460
0.975000,	0.512713
1.000000,	0.507966
1.025000,	0.503219
1.050000,	0.498472
1.075000,	0.493725
1.100000,	0.488978
1.125000,	0.484231
1.150000,	0.479484
1.175000,	0.474737
1.200000,	0.469990
1.225000,	0.465243
1.250000,	0.460496
1.275000,	0.455749
1.300000,	0.451002
1.325000,	0.446255
1.350000,	0.441507
1.375000,	0.436760
1.400000,	0.432013
1.425000,	0.427266
1.450000,	0.422519
1.475000,	0.417772
1.500000,	0.413025
1.525000,	0.408278
1.550000,	0.403531
1.575000,	0.398784
1.600000,	0.394037
1.625000,	0.389290
1.650000,	0.384543
1.675000,	0.379796
1.700000,	0.375049
1.725000,	0.370302
1.750000,	0.365555
1.775000,	0.360808
1.800000,	0.356061
1.825000,	0.351314
1.850000,	0.346567
1.875000,	0.341820
1.900000,	0.337073
1.925000,	0.332326
1.950000,	0.327579
1.975000,	0.322832
2.000000,	0.318084
2.025000,	0.313337
2.050000,	0.308590
2.075000,	0.303843
2.100000,	0.299096
2.125000,	0.294349
2.150000,	0.289602
2.175000,	0.284855
2.200000,	0.280108
2.225000,	0.275361
2.250000,	0.270614
2.275000,	0.265867
2.300000,	0.261120
2.325000,	0.256373
2.350000,	0.251626
2.375000,	0.246879
2.400000,	0.242132
2.425000,	0.237385
2.450000,	0.232638
2.475000,	0.227891
2.500000,	0.223144
0.000000,	0.000947
0.025000,	0.019433
0.050000,	0.037919
0.075000,	0.056405
0.100000,	0.074891
0.125000,	0.093377
0.150000,	0.111863
0.175000,	0.130349
0.200000,	0.148835
0.225000,	0.167321
0.250000,	0.185807
0.275000,	0.204293
0.300000,	0.222779
0.325000,	0.241265
0.350000,	0.259751
0.375000,	0.278237
0.400000,	0.296723
0.425000,	0.315209
0.450000,	0.333696
0.475000,	0.352182
0.500000,	0.370668
0.525000,	0.389154
0.550000,	0.407640
0.575000,	0.426126
0.600000,	0.444612
0.625000,	0.463098
0.650000,	0.481584
0.675000,	0.500070
0.700000,	0.518556
0.725000,	0.537042
0.750000,	0.555528
0.775000,	0.550782
0.800000,	0.546035
0.825000,	0.541289
0.850000,	0.536542
0.875000,	0.531796
0.900000,	0.527050
0.925000,	0.522303
0.950000,	0.517557
0.975000,	0.512810
1.000000,	0.508064
1.025000,	0.503317
1.050000,	0.498571
1.075000,	0.493825
1.100000,	0.489078
1.125000,	0.484332
1.150000,	0.479585
1.175000,	0.474839
1.200000,	0.470093
1.225000,	0.465346
1.250000,	0.460600
1.275000,	0.455853
1.300000,	0.451107
1.325000,	0.446360
1.350000,	0.441614
1.375000,	0.436868
1.400000,	0.432121
1.425000,	0.427375
1.450000,	0.422628
1.475000,	0.417882
1.500000,	0.413136
1.525000,	0.408389
1.550000,	0.403643
1.575000,	0.398896
1.600000,	0.394150
1.625000,	0.389403
1.650000,	0.384657
1.675000,	0.379911
1.700000,	0.375164
1.725000,	0.370418
1.750000,	0.365671
1.775000,	0.360925
1.800000,	0.356179
1.825000,	0.351432
1.850000,	0.346686
1.875000,	0.341939
1.900000,	0.337193
1.925000,	0.332446
1.950000,	0.327700
1.975000,	0.322954
2.000000,	0.318207
2.025000,	0.313461
2.050000,	0.308714
2.075000,	0.303968
2.100000,	0.299222
2.125000,	0.294475
2.150000,	0.289729
2.175000,	0.284982
2.200000,	0.280236
2.225000,	0.275489
2.250000,	0.270743
2.275000,	0.265997
2.300000,	0.261250
2.325000,	0.256504
2.350000,	0.251757
2.375000,	0.247011
2.400000,	0.242265
2.425000,	0.237518
2.450000,	0.232772
2.475000,	0.228025
2.500000,	0.223279
0.000000,	0.001127
0.025000,	0.019610
0.050000,	0.038093
0.075000,	0.056577
0.100000,	0.075060
0.125000,	0.093544
0.150000,	0.112027
0.175000,	0.130510
0.200000,	0.148994
0.225000,	0.167477
0.250000,	0.185961
0.275000,	0.204444
0.300000,	0.222927
0.325000,	0.241411
0.350000,	0.259894
0.375000,	0.278378
0.400000,	0.296861
0.425000,	0.315344
0.450000,	0.333828
0.475000,	0.352311
0.500000,	0.370795
0.525000,	0.389278
0.550000,	0.407761
0.575000,	0.426245
0.600000,	0.444728
0.625000,	0.463211
0.650000,	0.481695
0.675000,	0.500178
0.700000,	0.518662
0.725000,	0.537145
0.750000,	0.555628
0.775000,	0.550883
0.800000,	0.546137
0.825000,	0.541391
0.850000,	0.536645
0.875000,	0.531900
0.900000,	0.527154
0.925000,	0.522408
0.950000,	0.517663
0.975000,	0.512917
1.000000,	0.508171
1.025000,	0.503425
1.050000,	0.498680
1.075000,	0.493934
1.100000,	0.489188
1.125000,	0.484442
1.150000,	0.479697
1.175000,	0.474951
1.200000,	0.470205
1.225000,	0.465459
1.250000,	0.460714
1.275000,	0.455968
1.300000,	0.451222
1.325000,	0.446477
1.350000,	0.441731
1.375000,	0.436985
1.400000,	0.432239
1.425000,	0.427494
1.450000,	0.422748
1.475000,	0.418002
1.500000,	0.413256
1.525000,	0.408511
1.550000,	0.403765
1.575000,	0.399019
1.600000,	0.394273
1.625000,	0.389528
1.650000,	0.384782
1.675000,	0.380036
1.700000,	0.375290
1.725000,	0.370545
1.750000,	0.365799
1.775000,	0.361053
1.800000,	0.356308
1.825000,	0.351562
1.850000,	0.346816
1.875000,	0.342070
1.900000,	0.337325
1.925000,	0.332579
1.950000,	0.327833
1.975000,	0.323087
2.000000,	0.318342
2.025000,	0.313596
2.050000,	0.308850
2.075000,	0.304104
2.100000,	0.299359
2.125000,	0.294613
2.150000,	0.289867
2.175000,	0.285121
2.200000,	0.280376
2.225000,	0.275630
2.250000,	0.270884
2.275000,	0.266139
2.300000,	0.261393
2.325000,	0.256647
2.350000,	0.251901
2.375000,	0.247156
2.400000,	0.242410
2.425000,	0.237664
2.450000,	0.232918
2.475000,	0.228173
2.500000,	0.223427
0.000000,	0.001322
0.025000,	0.019803
0.050000,	0.038283
0.075000,	0.056764
0.100000,	0.075244
0.125000,	0.093725
0.150000,	0.112205
0.175000,	0.130686
0.200000,	0.149166
0.225000,	0.167647
0.250000,	0.186127
0.275000,	0.204608
0.300000,	0.223088
0.325000,	0.241569
0.350000,	0.260049
0.375000,	0.278530
0.400000,	0.297010
0.425000,	0.315491
0.450000,	0.333971
0.475000,	0.352452
0.500000,	0.370932
0.525000,	0.389413
0.550000,	0.407893
0.575000,	0.426374
0.600000,	0.444854
0.625000,	0.463335
0.650000,	0.481815
0.675000,	0.500296
0.700000,	0.518777
0.725000,	0.537257
0.750000,	0.555738
0.775000,	0.550993
0.800000,	0.546248
0.825000,	0.541503
0.850000,	0.536758
0.875000,	0.532013
0.900000,	0.527268
0.925000,	0.522523
0.950000,	0.517778
0.975000,	0.513033
1.000000,	0.508288
1.025000,	0.503543
1.050000,	0.498798
1.075000,	0.494053
1.100000,	0.489308
1.125000,	0.484563
1.150000,	0.479818
1.175000,	0.475073
1.200000,	0.470328
1.225000,	0.465583
1.250000,	0.460838
1.275000,	0.456093
1.300000,	0.451348
1.325000,	0.446603
1.350000,	0.441858
1.375000,	0.437113
1.400000,	0.432368
1.425000,	0.427623
1.450000,	0.422878
1.475000,	0.418133
1.500000,	0.413388
1.525000,	0.408643
1.550000,	0.403898
1.575000,	0.399153
1.600000,	0.394408
1.625000,	0.389663
1.650000,	0.384918
1.675000,	0.380173
1.700000,	0.375428
1.725000,	0.370683
1.750000,	0.365938
1.775000,	0.361193
1.800000,	0.356448
1.825000,	0.351703
1.850000,	0.346958
1.875000,	0.342213
1.900000,	0.337468
1.925000,	0.332723
1.950000,	0.327978
1.975000,	0.323233
2.000000,	0.318488
2.025000,	0.313743
2.050000,	0.308998
2.075000,	0.304253
2.100000,	0.299508
2.125000,	0.294763
2.150000,	0.290018
2.175000,	0.285273
2.200000,	0.280528
2.225000,	0.275783
2.250000,	0.271038
2.275000,	0.266293
2.300000,	0.261548
2.325000,	0.256803
2.350000,	0.252058
2.375000,	0.247313
2.400000,	0.242568
2.425000,	0.237823
2.450000,	0.233078
2.475000,	0.228333
2.500000,	0.223588
0.000000,	0.001534
0.025000,	0.020011
0.050000,	0.038488
0.075000,	0.056966
0.100000,	0.075443
0.125000,	0.093921
0.150000,	0.112398
0.175000,	0.130875
0.200000,	0.149353
0.225000,	0.167830
0.250000,	0.186307
0.275000,	0.204785
0.300000,	0.223262
0.325000,	0.241740
0.350000,	0.260217
0.375000,	0.278694
0.400000,	0.297172
0.425000,	0.315649
0.450000,	0.334127
0.475000,	0.352604
0.500000,	0.371081
0.525000,	0.389559
0.550000,	0.408036
0.575000,	0.426514
0.600000,	0.444991
0.625000,	0.463468
0.650000,	0.481946
0.675000,	0.500423
0.700000,	0.518901
0.725000,	0.537378
0.750000,	0.555855
0.775000,	0.551111
0.800000,	0.546367
0.825000,	0.541623
0.850000,	0.536879
0.875000,	0.532134
0.900000,	0.527390
0.925000,	0.522646
0.950000,	0.517902
0.975000,	0.513158
1.000000,	0.508413
1.025000,	0.503669
1.050000,	0.498925
1.075000,	0.494181
1.100000,	0.489437
1.125000,	0.484692
1.150000,	0.479948
1.175000,	0.475204
1.200000,	0.470460
1.225000,	0.465716
1.250000,	0.460971
1.275000,	0.456227
1.300000,	0.451483
1.325000,	0.446739
1.350000,	0.441995
1.375000,	0.437250
1.400000,	0.432506
1.425000,	0.427762
1.450000,	0.423018
1.475000,	0.418274
1.500000,	0.413529
1.525000,	0.408785
1.550000,	0.404041
1.575000,	0.399297
1.600000,	0.394553
1.625000,	0.389809
1.650000,	0.385064
1.675000,	0.380320
1.700000,	0.375576
1.725000,	0.370832
1.750000,	0.366088
1.775000,	0.361343
1.800000,	0.356599
1.825000,	0.351855
1.850000,	0.347111
1.875000,	0.342367
1.900000,	0.337622
1.925000,	0.332878
1.950000,	0.328134
1.975000,	0.323390
2.000000,	0.318646
2.025000,	0.313901
2.050000,	0.309157
2.075000,	0.304413
2.100000,	0.299669
2.125000,	0.294925
2.150000,	0.290180
2.175000,	0.285436
2.200000,	0.280692
2.225000,	0.275948
2.250000,	0.271204
2.275000,	0.266459
2.300000,	0.261715
2.325000,	0.256971
2.350000,	0.252227
2.375000,	0.247483
2.400000,	0.242738
2.425000,	0.237994
2.450000,	0.233250
2.475000,	0.228506
2.500000,	0.223762
0.000000,	0.001760
0.025000,	0.020234
0.050000,	0.038709
0.075000,	0.057183
0.100000,	0.075657
0.125000,	0.094131
0.150000,	0.112605
0.175000,	0.131079
0.200000,	0.149553
0.225000,	0.168027
0.250000,	0.186501
0.275000,	0.204975
0.300000,	0.223449
0.325000,	0.241923
0.350000,	0.260397
0.375000,	0.278871
0.400000,	0.297345
0.425000,	0.315819
0.450000,	0.334293
0.475000,	0.352767
0.500000,	0.371241
0.525000,	0.389715
0.550000,	0.408190
0.575000,	0.426664
0.600000,	0.445138
0.625000,	0.463612
0.650000,	0.482086
0.675000,	0.500560
0.700000,	0.519034
0.725000,	0.537508
0.750000,	0.555982
0.775000,	0.551239
0.800000,	0.546495
0.825000,	0.541752
0.850000,	0.537009
0.875000,	0.532265
0.900000,	0.527522
0.925000,	0.522779
0.950000,	0.518035
0.975000,	0.513292
1.000000,	0.508549
1.025000,	0.503805
1.050000,	0.499062
1.075000,	0.494319
1.100000,	0.489575
1.125000,	0.484832
1.150000,	0.480089
1.175000,	0.475345
1.200000,	0.470602
1.225000,	0.465859
1.250000,	0.461115
1.275000,	0.456372
1.300000,	0.451629
1.325000,	0.446885
1.350000,	0.442142
1.375000,	0.437398
1.400000,	0.432655
1.425000,	0.427912
1.450000,	0.423168