TITLE = "2DRampMesh"
VARIABLES = "X", "Y"
ZONE I=101, J=51, DATAPACKING=POINT
  0.0000000000000000,  0.0000000000000000
  0.0030480000000000,  0.0000000000000000
  0.0060960000000000,  0.0000000000000000
  0.0091440000000000,  0.0000000000000000
  0.0121920000000000,  0.0000000000000000
  0.0152400000000000,  0.0000000000000000
  0.0182880000000000,  0.0000000000000000
  0.0213360000000000,  0.0000000000000000
  0.0243840000000000,  0.0000000000000000
  0.0274320000000000,  0.0000000000000000
  0.0304800000000000,  0.0000000000000000
  0.0335280000000000,  0.0000000000000000
  0.0365760000000000,  0.0000000000000000
  0.0396240000000000,  0.0000000000000000
  0.0426720000000000,  0.0000000000000000
  0.0457200000000000,  0.0000000000000000
  0.0487680000000000,  0.0000000000000000
  0.0518160000000000,  0.0000000000000000
  0.0548640000000000,  0.0000000000000000
  0.0579120000000000,  0.0000000000000000
  0.0609600000000000,  0.0000000000000000
  0.0640080000000000,  0.0000000000000000
  0.0670560000000000,  0.0000000000000000
  0.0701040000000000,  0.0000000000000000
  0.0731520000000000,  0.0000000000000000
  0.0762000000000000,  0.0000000000000000
  0.0792480000000000,  0.0000000000000000
  0.0822960000000000,  0.0000000000000000
  0.0853440000000000,  0.0000000000000000
  0.0883920000000000,  0.0000000000000000
  0.0914400000000000,  0.0000000000000000
  0.0944880000000000,  0.0000000000000000
  0.0975360000000000,  0.0000000000000000
  0.1005840000000000,  0.0000000000000000
  0.1036320000000000,  0.0000000000000000
  0.1066800000000000,  0.0000000000000000
  0.1097280000000000,  0.0000000000000000
  0.1127760000000000,  0.0000000000000000
  0.1158240000000000,  0.0000000000000000
  0.1188720000000000,  0.0000000000000000
  0.1219200000000000,  0.0000000000000000
  0.1249680000000000,  0.0000000000000000
  0.1280160000000000,  0.0000000000000000
  0.1310640000000000,  0.0000000000000000
  0.1341120000000000,  0.0000000000000000
  0.1371600000000000,  0.0000000000000000
  0.1402080000000000,  0.0000000000000000
  0.1432560000000000,  0.0000000000000000
  0.1463040000000000,  0.0000000000000000
  0.1493520000000000,  0.0000000000000000
  0.1524000000000000,  0.0000000000000000
  0.1554480000000000,  0.0000000000000000
  0.1584960000000000,  0.0000000000000000
  0.1615440000000000,  0.0000000000000000
  0.1645920000000000,  0.0000000000000000
  0.1676400000000000,  0.0000000000000000
  0.1706880000000000,  0.0000000000000000
  0.1737360000000000,  0.0000000000000000
  0.1767840000000000,  0.0000000000000000
  0.1798320000000000,  0.0000000000000000
  0.1828800000000000,  0.0000000000000000
  0.1859280000000000,  0.0000000000000000
  0.1889760000000000,  0.0000000000000000
  0.1920240000000000,  0.0000000000000000
  0.1950720000000000,  0.0000000000000000
  0.1981200000000000,  0.0000000000000000
  0.2011680000000000,  0.0000000000000000
  0.2042160000000000,  0.0000000000000000
  0.2072640000000000,  0.0000000000000000
  0.2103120000000000,  0.0000000000000000
  0.2133600000000000,  0.0000000000000000
  0.2164080000000000,  0.0000000000000000
  0.2194560000000000,  0.0000000000000000
  0.2225040000000000,  0.0000000000000000
  0.2255520000000000,  0.0000000000000000
  0.2286000000000000,  0.0000000000000000
  0.2316480000000000,  0.0000000000000000
  0.2346960000000000,  0.0000000000000000
  0.2377440000000000,  0.0000000000000000
  0.2407920000000000,  0.0000000000000000
  0.2438399999999999,  0.0000000000000000
  0.2468880000000000,  0.0000000000000000
  0.2499360000000000,  0.0000000000000000
  0.2529839999999999,  0.0000000000000000
  0.2560320000000000,  0.0000000000000000
  0.2590800000000000,  0.0000000000000000
  0.2621280000000000,  0.0000000000000000
  0.2651760000000000,  0.0000000000000000
  0.2682240000000000,  0.0000000000000000
  0.2712720000000000,  0.0000000000000000
  0.2743200000000000,  0.0000000000000000
  0.2773679999999999,  0.0000000000000000
  0.2804159999999999,  0.0000000000000000
  0.2834639999999999,  0.0000000000000000
  0.2865119999999999,  0.0000000000000000
  0.2895599999999999,  0.0000000000000000
  0.2926080000000000,  0.0000000000000000
  0.2956560000000000,  0.0000000000000000
  0.2987040000000000,  0.0000000000000000
  0.3017520000000000,  0.0000000000000000
  0.3048000000000000,  0.0000000000000000
  0.0000000000000000,  0.0006573012000000
  0.0030480000000000,  0.0006582532686509
  0.0060960000000000,  0.0006646159290758
  0.0091440000000000,  0.0006722428395638
  0.0121920000000000,  0.0006803950386498
  0.0152400000000000,  0.0006889692114737
  0.0182880000000000,  0.0006979038908056
  0.0213360000000000,  0.0007071631355766
  0.0243840000000000,  0.0007167249823381
  0.0274320000000000,  0.0007265456833524
  0.0304800000000000,  0.0007365916624655
  0.0335280000000000,  0.0007468478257688
  0.0365760000000000,  0.0007572942942799
  0.0396240000000000,  0.0007679101123795
  0.0426720000000000,  0.0007786800437159
  0.0457200000000000,  0.0007895973056190
  0.0487680000000000,  0.0008006267272036
  0.0518160000000000,  0.0008117616409853
  0.0548640000000000,  0.0008229875271101
  0.0579120000000000,  0.0008342968501409
  0.0609600000000000,  0.0008456865672843
  0.0640080000000000,  0.0008571442697629
  0.0670560000000000,  0.0008686543996343
  0.0701040000000000,  0.0008801997498439
  0.0731520000000000,  0.0008917734188966
  0.0762000000000000,  0.0009033800350937
  0.0792480000000000,  0.0009150035910857
  0.0822960000000000,  0.0009266451662831
  0.0853440000000000,  0.0009382828556765
  0.0883920000000000,  0.0009499184071056
  0.0914400000000000,  0.0009615483738281
  0.0944880000000000,  0.0009731653808550
  0.0975360000000000,  0.0009847572850525
  0.1005840000000000,  0.0009963158531503
  0.1036320000000000,  0.0010078390000309
  0.1066800000000000,  0.0010193271161781
  0.1097280000000000,  0.0010307653445669
  0.1127760000000000,  0.0010421561690169
  0.1158240000000000,  0.0010534795611735
  0.1188720000000000,  0.0010647519701616
  0.1219200000000000,  0.0010759508994076
  0.1249680000000000,  0.0010870831143715
  0.1280160000000000,  0.0010981354163905
  0.1310640000000000,  0.0011091145010381
  0.1341120000000000,  0.0011200028208133
  0.1371600000000000,  0.0011308059047228
  0.1402080000000000,  0.0011415073204194
  0.1432560000000000,  0.0011521185836574
  0.1463040000000000,  0.0011626250049064
  0.1493520000000000,  0.0011730149988361
  0.1524000000000000,  0.0011832915953392
  0.1554480000000000,  0.0011934566942760
  0.1584960000000000,  0.0012035010043304
  0.1615440000000000,  0.0012134224863427
  0.1645920000000000,  0.0012232083232000
  0.1676400000000000,  0.0012328519656522
  0.1706880000000000,  0.0012423568077180
  0.1737360000000000,  0.0012517181919660
  0.1767840000000000,  0.0012609423062118
  0.1798320000000000,  0.0012700080172821
  0.1828800000000000,  0.0012789168852073
  0.1859280000000000,  0.0012876513607372
  0.1889760000000000,  0.0012962207662061
  0.1920240000000000,  0.0013046252262064
  0.1950720000000000,  0.0013128677300540
  0.1981200000000000,  0.0013209351823901
  0.2011680000000000,  0.0013288201363332
  0.2042160000000000,  0.0013365130137829
  0.2072640000000000,  0.0013440164070872
  0.2103120000000000,  0.0013513228394131
  0.2133600000000000,  0.0013584358714348
  0.2164080000000000,  0.0013653508118251
  0.2194560000000000,  0.0013720697095000
  0.2225040000000000,  0.0013785978534211
  0.2255520000000000,  0.0013849376590388
  0.2286000000000000,  0.0013910906382733
  0.2316480000000000,  0.0013970550487044
  0.2346960000000000,  0.0014028474624065
  0.2377440000000000,  0.0014084742455569
  0.2407920000000000,  0.0014139317299464
  0.2438399999999999,  0.0014192390306323
  0.2468880000000000,  0.0014243893609184
  0.2499360000000000,  0.0014293696567744
  0.2529839999999999,  0.0014342218047816
  0.2560320000000000,  0.0014389054381439
  0.2590800000000000,  0.0014434615468800
  0.2621280000000000,  0.0014478591610122
  0.2651760000000000,  0.0014521193260306
  0.2682240000000000,  0.0014562571833748
  0.2712720000000000,  0.0014602374009811
  0.2743200000000000,  0.0014641107783926
  0.2773679999999999,  0.0014678551918354
  0.2804159999999999,  0.0014714513043761
  0.2834639999999999,  0.0014749454122632
  0.2865119999999999,  0.0014783149383084
  0.2895599999999999,  0.0014815452446293
  0.2926080000000000,  0.0014846857710665
  0.2956560000000000,  0.0014877149393685
  0.2987040000000000,  0.0014906056589004
  0.3017520000000000,  0.0014934079667519
  0.3048000000000000,  0.0014960982311769
  0.0000000000000000,  0.0013146024000000
  0.0030480000000000,  0.0013165065373018
  0.0060960000000000,  0.0013292318581516
  0.0091440000000000,  0.0013444856791275
  0.0121920000000000,  0.0013607900772997
  0.0152400000000000,  0.0013779384229474
  0.0182880000000000,  0.0013958077816112
  0.0213360000000000,  0.0014143262711532
  0.0243840000000000,  0.0014334499646763
  0.0274320000000000,  0.0014530913667048
  0.0304800000000000,  0.0014731833249311
  0.0335280000000000,  0.0014936956515376
  0.0365760000000000,  0.0015145885885598
  0.0396240000000000,  0.0015358202247590
  0.0426720000000000,  0.0015573600874317
  0.0457200000000000,  0.0015791946112381
  0.0487680000000000,  0.0016012534544072
  0.0518160000000000,  0.0016235232819706
  0.0548640000000000,  0.0016459750542203
  0.0579120000000000,  0.0016685937002818
  0.0609600000000000,  0.0016913731345687
  0.0640080000000000,  0.0017142885395259
  0.0670560000000000,  0.0017373087992687
  0.0701040000000000,  0.0017603994996878
  0.0731520000000000,  0.0017835468377932
  0.0762000000000000,  0.0018067600701873
  0.0792480000000000,  0.0018300071821714
  0.0822960000000000,  0.0018532903325662
  0.0853440000000000,  0.0018765657113530
  0.0883920000000000,  0.0018998368142112
  0.0914400000000000,  0.0019230967476562
  0.0944880000000000,  0.0019463307617101
  0.0975360000000000,  0.0019695145701049
  0.1005840000000000,  0.0019926317063006
  0.1036320000000000,  0.0020156780000618
  0.1066800000000000,  0.0020386542323563
  0.1097280000000000,  0.0020615306891339
  0.1127760000000000,  0.0020843123380337
  0.1158240000000000,  0.0021069591223471
  0.1188720000000000,  0.0021295039403232
  0.1219200000000000,  0.0021519017988151
  0.1249680000000000,  0.0021741662287430
  0.1280160000000000,  0.0021962708327811
  0.1310640000000000,  0.0022182290020762
  0.1341120000000000,  0.0022400056416266
  0.1371600000000000,  0.0022616118094456
  0.1402080000000000,  0.0022830146408388
  0.1432560000000000,  0.0023042371673147
  0.1463040000000000,  0.0023252500098127
  0.1493520000000000,  0.0023460299976722
  0.1524000000000000,  0.0023665831906784
  0.1554480000000000,  0.0023869133885521
  0.1584960000000000,  0.0024070020086609
  0.1615440000000000,  0.0024268449726855
  0.1645920000000000,  0.0024464166464000
  0.1676400000000000,  0.0024657039313045
  0.1706880000000000,  0.0024847136154360
  0.1737360000000000,  0.0025034363839320
  0.1767840000000000,  0.0025218846124235
  0.1798320000000000,  0.0025400160345641
  0.1828800000000000,  0.0025578337704145
  0.1859280000000000,  0.0025753027214744
  0.1889760000000000,  0.0025924415324122
  0.1920240000000000,  0.0026092504524129
  0.1950720000000000,  0.0026257354601080
  0.1981200000000000,  0.0026418703647802
  0.2011680000000000,  0.0026576402726664
  0.2042160000000000,  0.0026730260275658
  0.2072640000000000,  0.0026880328141744
  0.2103120000000000,  0.0027026456788261
  0.2133600000000000,  0.0027168717428696
  0.2164080000000000,  0.0027307016236502
  0.2194560000000000,  0.0027441394190000
  0.2225040000000000,  0.0027571957068422
  0.2255520000000000,  0.0027698753180776
  0.2286000000000000,  0.0027821812765466
  0.2316480000000000,  0.0027941100974089
  0.2346960000000000,  0.0028056949248130
  0.2377440000000000,  0.0028169484911139
  0.2407920000000000,  0.0028278634598927
  0.2438399999999999,  0.0028384780612645
  0.2468880000000000,  0.0028487787218368
  0.2499360000000000,  0.0028587393135488
  0.2529839999999999,  0.0028684436095632
  0.2560320000000000,  0.0028778108762878
  0.2590800000000000,  0.0028869230937600
  0.2621280000000000,  0.0028957183220244
  0.2651760000000000,  0.0029042386520612
  0.2682240000000000,  0.0029125143667495
  0.2712720000000000,  0.0029204748019623
  0.2743200000000000,  0.0029282215567852
  0.2773679999999999,  0.0029357103836707
  0.2804159999999999,  0.0029429026087523
  0.2834639999999999,  0.0029498908245264
  0.2865119999999999,  0.0029566298766168
  0.2895599999999999,  0.0029630904892585
  0.2926080000000000,  0.0029693715421329
  0.2956560000000000,  0.0029754298787370
  0.2987040000000000,  0.0029812113178009
  0.3017520000000000,  0.0029868159335037
  0.3048000000000000,  0.0029921964623538
  0.0000000000000000,  0.0019719036000000
  0.0030480000000000,  0.0019747598059527
  0.0060960000000000,  0.0019938477872274
  0.0091440000000000,  0.0020167285186913
  0.0121920000000000,  0.0020411851159495
  0.0152400000000000,  0.0020669076344211
  0.0182880000000000,  0.0020937116724168
  0.0213360000000000,  0.0021214894067298
  0.0243840000000000,  0.0021501749470144
  0.0274320000000000,  0.0021796370500571
  0.0304800000000000,  0.0022097749873966
  0.0335280000000000,  0.0022405434773065
  0.0365760000000000,  0.0022718828828397
  0.0396240000000000,  0.0023037303371385
  0.0426720000000000,  0.0023360401311476
  0.0457200000000000,  0.0023687919168571
  0.0487680000000000,  0.0024018801816108
  0.0518160000000000,  0.0024352849229559
  0.0548640000000000,  0.0024689625813304
  0.0579120000000000,  0.0025028905504228
  0.0609600000000000,  0.0025370597018530
  0.0640080000000000,  0.0025714328092888
  0.0670560000000000,  0.0026059631989030
  0.0701040000000000,  0.0026405992495318
  0.0731520000000000,  0.0026753202566898
  0.0762000000000000,  0.0027101401052810
  0.0792480000000000,  0.0027450107732571
  0.0822960000000000,  0.0027799354988493
  0.0853440000000000,  0.0028148485670295
  0.0883920000000000,  0.0028497552213168
  0.0914400000000000,  0.0028846451214843
  0.0944880000000000,  0.0029194961425651
  0.0975360000000000,  0.0029542718551574
  0.1005840000000000,  0.0029889475594509
  0.1036320000000000,  0.0030235170000927
  0.1066800000000000,  0.0030579813485344
  0.1097280000000000,  0.0030922960337008
  0.1127760000000000,  0.0031264685070506
  0.1158240000000000,  0.0031604386835206
  0.1188720000000000,  0.0031942559104848
  0.1219200000000000,  0.0032278526982227
  0.1249680000000000,  0.0032612493431145
  0.1280160000000000,  0.0032944062491716
  0.1310640000000000,  0.0033273435031143
  0.1341120000000000,  0.0033600084624399
  0.1371600000000000,  0.0033924177141684
  0.1402080000000000,  0.0034245219612583
  0.1432560000000000,  0.0034563557509721
  0.1463040000000000,  0.0034878750147191
  0.1493520000000000,  0.0035190449965083
  0.1524000000000000,  0.0035498747860176
  0.1554480000000000,  0.0035803700828281
  0.1584960000000000,  0.0036105030129913
  0.1615440000000000,  0.0036402674590282
  0.1645920000000000,  0.0036696249696000
  0.1676400000000000,  0.0036985558969567
  0.1706880000000000,  0.0037270704231540
  0.1737360000000000,  0.0037551545758980
  0.1767840000000000,  0.0037828269186353
  0.1798320000000000,  0.0038100240518462
  0.1828800000000000,  0.0038367506556218
  0.1859280000000000,  0.0038629540822116
  0.1889760000000000,  0.0038886622986183
  0.1920240000000000,  0.0039138756786193
  0.1950720000000000,  0.0039386031901620
  0.1981200000000000,  0.0039628055471703
  0.2011680000000000,  0.0039864604089996
  0.2042160000000000,  0.0040095390413487
  0.2072640000000000,  0.0040320492212616
  0.2103120000000000,  0.0040539685182392
  0.2133600000000000,  0.0040753076143044
  0.2164080000000000,  0.0040960524354753
  0.2194560000000000,  0.0041162091285000
  0.2225040000000000,  0.0041357935602633
  0.2255520000000000,  0.0041548129771164
  0.2286000000000000,  0.0041732719148199
  0.2316480000000000,  0.0041911651461133
  0.2346960000000000,  0.0042085423872195
  0.2377440000000000,  0.0042254227366708
  0.2407920000000000,  0.0042417951898391
  0.2438399999999999,  0.0042577170918968
  0.2468880000000000,  0.0042731680827552
  0.2499360000000000,  0.0042881089703232
  0.2529839999999999,  0.0043026654143448
  0.2560320000000000,  0.0043167163144317
  0.2590800000000000,  0.0043303846406400
  0.2621280000000000,  0.0043435774830366
  0.2651760000000000,  0.0043563579780917
  0.2682240000000000,  0.0043687715501243
  0.2712720000000000,  0.0043807122029434
  0.2743200000000000,  0.0043923323351778
  0.2773679999999999,  0.0044035655755061
  0.2804159999999999,  0.0044143539131284
  0.2834639999999999,  0.0044248362367897
  0.2865119999999999,  0.0044349448149251
  0.2895599999999999,  0.0044446357338878
  0.2926080000000000,  0.0044540573131994
  0.2956560000000000,  0.0044631448181055
  0.2987040000000000,  0.0044718169767013
  0.3017520000000000,  0.0044802239002556
  0.3048000000000000,  0.0044882946935307
  0.0000000000000000,  0.0026292048000000
  0.0030480000000000,  0.0026330130746036
  0.0060960000000000,  0.0026584637163032
  0.0091440000000000,  0.0026889713582551
  0.0121920000000000,  0.0027215801545994
  0.0152400000000000,  0.0027558768458947
  0.0182880000000000,  0.0027916155632223
  0.0213360000000000,  0.0028286525423064
  0.0243840000000000,  0.0028668999293526
  0.0274320000000000,  0.0029061827334095
  0.0304800000000000,  0.0029463666498621
  0.0335280000000000,  0.0029873913030753
  0.0365760000000000,  0.0030291771771196
  0.0396240000000000,  0.0030716404495179
  0.0426720000000000,  0.0031147201748634
  0.0457200000000000,  0.0031583892224762
  0.0487680000000000,  0.0032025069088143
  0.0518160000000000,  0.0032470465639412
  0.0548640000000000,  0.0032919501084405
  0.0579120000000000,  0.0033371874005637
  0.0609600000000000,  0.0033827462691374
  0.0640080000000000,  0.0034285770790517
  0.0670560000000000,  0.0034746175985373
  0.0701040000000000,  0.0035207989993757
  0.0731520000000000,  0.0035670936755864
  0.0762000000000000,  0.0036135201403747
  0.0792480000000000,  0.0036600143643429
  0.0822960000000000,  0.0037065806651324
  0.0853440000000000,  0.0037531314227060
  0.0883920000000000,  0.0037996736284224
  0.0914400000000000,  0.0038461934953124
  0.0944880000000000,  0.0038926615234201
  0.0975360000000000,  0.0039390291402098
  0.1005840000000000,  0.0039852634126012
  0.1036320000000000,  0.0040313560001236
  0.1066800000000000,  0.0040773084647126
  0.1097280000000000,  0.0041230613782677
  0.1127760000000000,  0.0041686246760675
  0.1158240000000000,  0.0042139182446942
  0.1188720000000000,  0.0042590078806464
  0.1219200000000000,  0.0043038035976302
  0.1249680000000000,  0.0043483324574859
  0.1280160000000000,  0.0043925416655621
  0.1310640000000000,  0.0044364580041525
  0.1341120000000000,  0.0044800112832532
  0.1371600000000000,  0.0045232236188912
  0.1402080000000000,  0.0045660292816777
  0.1432560000000000,  0.0046084743346295
  0.1463040000000000,  0.0046505000196254
  0.1493520000000000,  0.0046920599953443
  0.1524000000000000,  0.0047331663813568
  0.1554480000000000,  0.0047738267771042
  0.1584960000000000,  0.0048140040173217
  0.1615440000000000,  0.0048536899453710
  0.1645920000000000,  0.0048928332928000
  0.1676400000000000,  0.0049314078626090
  0.1706880000000000,  0.0049694272308720
  0.1737360000000000,  0.0050068727678640
  0.1767840000000000,  0.0050437692248471
  0.1798320000000000,  0.0050800320691282
  0.1828800000000000,  0.0051156675408291
  0.1859280000000000,  0.0051506054429487
  0.1889760000000000,  0.0051848830648244
  0.1920240000000000,  0.0052185009048257
  0.1950720000000000,  0.0052514709202160
  0.1981200000000000,  0.0052837407295604
  0.2011680000000000,  0.0053152805453329
  0.2042160000000000,  0.0053460520551316
  0.2072640000000000,  0.0053760656283488
  0.2103120000000000,  0.0054052913576522
  0.2133600000000000,  0.0054337434857392
  0.2164080000000000,  0.0054614032473003
  0.2194560000000000,  0.0054882788380000
  0.2225040000000000,  0.0055143914136844
  0.2255520000000000,  0.0055397506361552
  0.2286000000000000,  0.0055643625530932
  0.2316480000000000,  0.0055882201948178
  0.2346960000000000,  0.0056113898496261
  0.2377440000000000,  0.0056338969822277
  0.2407920000000000,  0.0056557269197855
  0.2438399999999999,  0.0056769561225290
  0.2468880000000000,  0.0056975574436736
  0.2499360000000000,  0.0057174786270976
  0.2529839999999999,  0.0057368872191265
  0.2560320000000000,  0.0057556217525756
  0.2590800000000000,  0.0057738461875200
  0.2621280000000000,  0.0057914366440488
  0.2651760000000000,  0.0058084773041223
  0.2682240000000000,  0.0058250287334991
  0.2712720000000000,  0.0058409496039246
  0.2743200000000000,  0.0058564431135704
  0.2773679999999999,  0.0058714207673415
  0.2804159999999999,  0.0058858052175046
  0.2834639999999999,  0.0058997816490529
  0.2865119999999999,  0.0059132597532335
  0.2895599999999999,  0.0059261809785170
  0.2926080000000000,  0.0059387430842659
  0.2956560000000000,  0.0059508597574741
  0.2987040000000000,  0.0059624226356018
  0.3017520000000000,  0.0059736318670074
  0.3048000000000000,  0.0059843929247076
  0.0000000000000000,  0.0032865060000000
  0.0030480000000000,  0.0032912663432544
  0.0060960000000000,  0.0033230796453790
  0.0091440000000000,  0.0033612141978188
  0.0121920000000000,  0.0034019751932492
  0.0152400000000000,  0.0034448460573684
  0.0182880000000000,  0.0034895194540279
  0.0213360000000000,  0.0035358156778830
  0.0243840000000000,  0.0035836249116907
  0.0274320000000000,  0.0036327284167619
  0.0304800000000000,  0.0036829583123276
  0.0335280000000000,  0.0037342391288441
  0.0365760000000000,  0.0037864714713995
  0.0396240000000000,  0.0038395505618974
  0.0426720000000000,  0.0038934002185793
  0.0457200000000000,  0.0039479865280952
  0.0487680000000000,  0.0040031336360179
  0.0518160000000000,  0.0040588082049265
  0.0548640000000000,  0.0041149376355507
  0.0579120000000000,  0.0041714842507046
  0.0609600000000000,  0.0042284328364217
  0.0640080000000000,  0.0042857213488147
  0.0670560000000000,  0.0043432719981717
  0.0701040000000000,  0.0044009987492196
  0.0731520000000000,  0.0044588670944831
  0.0762000000000000,  0.0045169001754684
  0.0792480000000000,  0.0045750179554286
  0.0822960000000000,  0.0046332258314154
  0.0853440000000000,  0.0046914142783825
  0.0883920000000000,  0.0047495920355280
  0.0914400000000000,  0.0048077418691405
  0.0944880000000000,  0.0048658269042752
  0.0975360000000000,  0.0049237864252623
  0.1005840000000000,  0.0049815792657515
  0.1036320000000000,  0.0050391950001545
  0.1066800000000000,  0.0050966355808907
  0.1097280000000000,  0.0051538267228347
  0.1127760000000000,  0.0052107808450843
  0.1158240000000000,  0.0052673978058677
  0.1188720000000000,  0.0053237598508080
  0.1219200000000000,  0.0053797544970378
  0.1249680000000000,  0.0054354155718574
  0.1280160000000000,  0.0054906770819527
  0.1310640000000000,  0.0055455725051906
  0.1341120000000000,  0.0056000141040665
  0.1371600000000000,  0.0056540295236140
  0.1402080000000000,  0.0057075366020971
  0.1432560000000000,  0.0057605929182868
  0.1463040000000000,  0.0058131250245318
  0.1493520000000000,  0.0058650749941804
  0.1524000000000000,  0.0059164579766960
  0.1554480000000000,  0.0059672834713802
  0.1584960000000000,  0.0060175050216522
  0.1615440000000000,  0.0060671124317137
  0.1645920000000000,  0.0061160416160000
  0.1676400000000000,  0.0061642598282612
  0.1706880000000000,  0.0062117840385900
  0.1737360000000000,  0.0062585909598299
  0.1767840000000000,  0.0063047115310588
  0.1798320000000000,  0.0063500400864103
  0.1828800000000000,  0.0063945844260364
  0.1859280000000000,  0.0064382568036859
  0.1889760000000000,  0.0064811038310305
  0.1920240000000000,  0.0065231261310321
  0.1950720000000000,  0.0065643386502700
  0.1981200000000000,  0.0066046759119505
  0.2011680000000000,  0.0066441006816661
  0.2042160000000000,  0.0066825650689145
  0.2072640000000000,  0.0067200820354360
  0.2103120000000000,  0.0067566141970653
  0.2133600000000000,  0.0067921793571741
  0.2164080000000000,  0.0068267540591254
  0.2194560000000000,  0.0068603485475000
  0.2225040000000000,  0.0068929892671055
  0.2255520000000000,  0.0069246882951940
  0.2286000000000000,  0.0069554531913665
  0.2316480000000000,  0.0069852752435222
  0.2346960000000000,  0.0070142373120326
  0.2377440000000000,  0.0070423712277847
  0.2407920000000000,  0.0070696586497318
  0.2438399999999999,  0.0070961951531613
  0.2468880000000000,  0.0071219468045920
  0.2499360000000000,  0.0071468482838720
  0.2529839999999999,  0.0071711090239081
  0.2560320000000000,  0.0071945271907195
  0.2590800000000000,  0.0072173077344000
  0.2621280000000000,  0.0072392958050610
  0.2651760000000000,  0.0072605966301529
  0.2682240000000000,  0.0072812859168738
  0.2712720000000000,  0.0073011870049057
  0.2743200000000000,  0.0073205538919630
  0.2773679999999999,  0.0073392759591768
  0.2804159999999999,  0.0073572565218807
  0.2834639999999999,  0.0073747270613161
  0.2865119999999999,  0.0073915746915419
  0.2895599999999999,  0.0074077262231463
  0.2926080000000000,  0.0074234288553323
  0.2956560000000000,  0.0074385746968426
  0.2987040000000000,  0.0074530282945022
  0.3017520000000000,  0.0074670398337593
  0.3048000000000000,  0.0074804911558844
  0.0000000000000000,  0.0039438072000000
  0.0030480000000000,  0.0039495196119053
  0.0060960000000000,  0.0039876955744548
  0.0091440000000000,  0.0040334570373826
  0.0121920000000000,  0.0040823702318991
  0.0152400000000000,  0.0041338152688421
  0.0182880000000000,  0.0041874233448335
  0.0213360000000000,  0.0042429788134596
  0.0243840000000000,  0.0043003498940289
  0.0274320000000000,  0.0043592741001143
  0.0304800000000000,  0.0044195499747932
  0.0335280000000000,  0.0044810869546129
  0.0365760000000000,  0.0045437657656794
  0.0396240000000000,  0.0046074606742769
  0.0426720000000000,  0.0046720802622952
  0.0457200000000000,  0.0047375838337143
  0.0487680000000000,  0.0048037603632215
  0.0518160000000000,  0.0048705698459118
  0.0548640000000000,  0.0049379251626608
  0.0579120000000000,  0.0050057811008455
  0.0609600000000000,  0.0050741194037061
  0.0640080000000000,  0.0051428656185776
  0.0670560000000000,  0.0052119263978060
  0.0701040000000000,  0.0052811984990635
  0.0731520000000000,  0.0053506405133797
  0.0762000000000000,  0.0054202802105620
  0.0792480000000000,  0.0054900215465143
  0.0822960000000000,  0.0055598709976985
  0.0853440000000000,  0.0056296971340590
  0.0883920000000000,  0.0056995104426335
  0.0914400000000000,  0.0057692902429686
  0.0944880000000000,  0.0058389922851302
  0.0975360000000000,  0.0059085437103148
  0.1005840000000000,  0.0059778951189018
  0.1036320000000000,  0.0060470340001854
  0.1066800000000000,  0.0061159626970688
  0.1097280000000000,  0.0061845920674016
  0.1127760000000000,  0.0062529370141012
  0.1158240000000000,  0.0063208773670413
  0.1188720000000000,  0.0063885118209696
  0.1219200000000000,  0.0064557053964453
  0.1249680000000000,  0.0065224986862289
  0.1280160000000000,  0.0065888124983432
  0.1310640000000000,  0.0066546870062287
  0.1341120000000000,  0.0067200169248798
  0.1371600000000000,  0.0067848354283368
  0.1402080000000000,  0.0068490439225165
  0.1432560000000000,  0.0069127115019442
  0.1463040000000000,  0.0069757500294381
  0.1493520000000000,  0.0070380899930165
  0.1524000000000000,  0.0070997495720352
  0.1554480000000000,  0.0071607401656563
  0.1584960000000000,  0.0072210060259826
  0.1615440000000000,  0.0072805349180565
  0.1645920000000000,  0.0073392499392000
  0.1676400000000000,  0.0073971117939134
  0.1706880000000000,  0.0074541408463080
  0.1737360000000000,  0.0075103091517959
  0.1767840000000000,  0.0075656538372706
  0.1798320000000000,  0.0076200481036923
  0.1828800000000000,  0.0076735013112436
  0.1859280000000000,  0.0077259081644231
  0.1889760000000000,  0.0077773245972366
  0.1920240000000000,  0.0078277513572386
  0.1950720000000000,  0.0078772063803240
  0.1981200000000000,  0.0079256110943406
  0.2011680000000000,  0.0079729208179993
  0.2042160000000000,  0.0080190780826974
  0.2072640000000000,  0.0080640984425232
  0.2103120000000000,  0.0081079370364783
  0.2133600000000000,  0.0081506152286089
  0.2164080000000000,  0.0081921048709505
  0.2194560000000000,  0.0082324182570000
  0.2225040000000000,  0.0082715871205266
  0.2255520000000000,  0.0083096259542328
  0.2286000000000000,  0.0083465438296398
  0.2316480000000000,  0.0083823302922267
  0.2346960000000000,  0.0084170847744391
  0.2377440000000000,  0.0084508454733416
  0.2407920000000000,  0.0084835903796782
  0.2438399999999999,  0.0085154341837935
  0.2468880000000000,  0.0085463361655104
  0.2499360000000000,  0.0085762179406464
  0.2529839999999999,  0.0086053308286897
  0.2560320000000000,  0.0086334326288634
  0.2590800000000000,  0.0086607692812800
  0.2621280000000000,  0.0086871549660732
  0.2651760000000000,  0.0087127159561835
  0.2682240000000000,  0.0087375431002486
  0.2712720000000000,  0.0087614244058869
  0.2743200000000000,  0.0087846646703556
  0.2773679999999999,  0.0088071311510122
  0.2804159999999999,  0.0088287078262569
  0.2834639999999999,  0.0088496724735793
  0.2865119999999999,  0.0088698896298503
  0.2895599999999999,  0.0088892714677756
  0.2926080000000000,  0.0089081146263988
  0.2956560000000000,  0.0089262896362111
  0.2987040000000000,  0.0089436339534027
  0.3017520000000000,  0.0089604478005111
  0.3048000000000000,  0.0089765893870613
  0.0000000000000000,  0.0046011084000000
  0.0030480000000000,  0.0046077728805562
  0.0060960000000000,  0.0046523115035306
  0.0091440000000000,  0.0047056998769463
  0.0121920000000000,  0.0047627652705489