TITLE = "2DRampMesh"
VARIABLES = "X", "Y"
ZONE I=201, J=75, DATAPACKING=POINT
  0.0000000000000000,  0.0000000000000000
  0.0310281244176542,  0.0000000000000000
  0.0620562488353084,  0.0000000000000000
  0.0930843732529626,  0.0000000000000000
  0.1241124976706168,  0.0000000000000000
  0.1551406220882710,  0.0000000000000000
  0.1861687465059252,  0.0000000000000000
  0.2171968709235794,  0.0000000000000000
  0.2482249953412336,  0.0000000000000000
  0.2792531197588878,  0.0000000000000000
  0.3102812441765420,  0.0000000000000000
  0.3413093685941962,  0.0000000000000000
  0.3723374930118504,  0.0000000000000000
  0.4033656174295046,  0.0000000000000000
  0.4343937418471588,  0.0000000000000000
  0.4654218662648130,  0.0000000000000000
  0.4964499906824672,  0.0000000000000000
  0.5274781151001214,  0.0000000000000000
  0.5585062395177756,  0.0000000000000000
  0.5895343639354298,  0.0000000000000000
  0.6205624883530840,  0.0000000000000000
  0.6515906127707382,  0.0000000000000000
  0.6826187371883924,  0.0000000000000000
  0.7136468616060466,  0.0000000000000000
  0.7446749860237007,  0.0000000000000000
  0.7757031104413550,  0.0000000000000000
  0.8067312348590092,  0.0000000000000000
  0.8377593592766635,  0.0000000000000000
  0.8687874836943176,  0.0000000000000000
  0.8998156081119718,  0.0000000000000000
  0.9308437325296260,  0.0000000000000000
  0.9618718569472802,  0.0000000000000000
  0.9928999813649344,  0.0000000000000000
  1.0239281057825886,  0.0000000000000000
  1.0549562302002429,  0.0000000000000000
  1.0859843546178971,  0.0000000000000000
  1.1170124790355511,  0.0000000000000000
  1.1480406034532054,  0.0000000000000000
  1.1790687278708596,  0.0000000000000000
  1.2100968522885138,  0.0000000000000000
  1.2411249767061681,  0.0000000000000000
  1.2721531011238223,  0.0000000000000000
  1.3031812255414763,  0.0000000000000000
  1.3342093499591305,  0.0000000000000000
  1.3652374743767848,  0.0000000000000000
  1.3962655987944390,  0.0000000000000000
  1.4272937232120932,  0.0000000000000000
  1.4583218476297475,  0.0000000000000000
  1.4893499720474015,  0.0000000000000000
  1.5203780964650557,  0.0000000000000000
  1.5514062208827100,  0.0000000000000000
  1.5824343453003642,  0.0000000000000000
  1.6134624697180184,  0.0000000000000000
  1.6444905941356727,  0.0000000000000000
  1.6755187185533269,  0.0000000000000000
  1.7065468429709809,  0.0000000000000000
  1.7375749673886351,  0.0000000000000000
  1.7686030918062894,  0.0000000000000000
  1.7996312162239436,  0.0000000000000000
  1.8306593406415979,  0.0000000000000000
  1.8616874650592521,  0.0000000000000000
  1.8927155894769061,  0.0000000000000000
  1.9237437138945603,  0.0000000000000000
  1.9547718383122146,  0.0000000000000000
  1.9857999627298688,  0.0000000000000000
  2.0168280871475228,  0.0000000000000000
  2.0478562115651773,  0.0000000000000000
  2.0788843359828313,  0.0000000000000000
  2.1099124604004857,  0.0000000000000000
  2.1409405848181398,  0.0000000000000000
  2.1719687092357942,  0.0000000000000000
  2.2029968336534482,  0.0000000000000000
  2.2340249580711022,  0.0000000000000000
  2.2650530824887567,  0.0000000000000000
  2.2960812069064107,  0.0000000000000000
  2.3271093313240652,  0.0000000000000000
  2.3581374557417192,  0.0000000000000000
  2.3891655801593732,  0.0000000000000000
  2.4201937045770276,  0.0000000000000000
  2.4512218289946817,  0.0000000000000000
  2.4822499534123361,  0.0000000000000000
  2.5132780778299901,  0.0000000000000000
  2.5443062022476446,  0.0000000000000000
  2.5753343266652986,  0.0000000000000000
  2.6063624510829526,  0.0000000000000000
  2.6373905755006071,  0.0000000000000000
  2.6684186999182611,  0.0000000000000000
  2.6994468243359155,  0.0000000000000000
  2.7304749487535696,  0.0000000000000000
  2.7615030731712240,  0.0000000000000000
  2.7925311975888780,  0.0000000000000000
  2.8235593220065320,  0.0000000000000000
  2.8545874464241865,  0.0000000000000000
  2.8856155708418405,  0.0000000000000000
  2.9166436952594950,  0.0000000000000000
  2.9476718196771490,  0.0000000000000000
  2.9786999440948030,  0.0000000000000000
  3.0097280685124574,  0.0000000000000000
  3.0407561929301115,  0.0000000000000000
  3.0717843173477659,  0.0000000000000000
  3.1028124417654199,  0.0000000000000000
  3.1338405661830744,  0.0000000000000000
  3.1648686906007284,  0.0000000000000000
  3.1958968150183824,  0.0000000000000000
  3.2269249394360369,  0.0000000000000000
  3.2579530638536909,  0.0000000000000000
  3.2889811882713453,  0.0000000000000000
  3.3200093126889993,  0.0000000000000000
  3.3510374371066538,  0.0000000000000000
  3.3820655615243078,  0.0000000000000000
  3.4130936859419618,  0.0000000000000000
  3.4441218103596163,  0.0000000000000000
  3.4751499347772703,  0.0000000000000000
  3.5061780591949248,  0.0000000000000000
  3.5372061836125788,  0.0000000000000000
  3.5682343080302332,  0.0000000000000000
  3.5992624324478872,  0.0000000000000000
  3.6302905568655413,  0.0000000000000000
  3.6613186812831957,  0.0000000000000000
  3.6923468057008497,  0.0000000000000000
  3.7233749301185042,  0.0000000000000000
  3.7544030545361582,  0.0000000000000000
  3.7854311789538122,  0.0000000000000000
  3.8164593033714667,  0.0000000000000000
  3.8474874277891207,  0.0000000000000000
  3.8785155522067751,  0.0000000000000000
  3.9095436766244291,  0.0000000000000000
  3.9405718010420836,  0.0000000000000000
  3.9715999254597376,  0.0000000000000000
  4.0026280498773916,  0.0000000000000000
  4.0336561742950456,  0.0000000000000000
  4.0646842987127005,  0.0000000000000000
  4.0957124231303546,  0.0000000000000000
  4.1267405475480086,  0.0000000000000000
  4.1577686719656626,  0.0000000000000000
  4.1887967963833166,  0.0000000000000000
  4.2198249208009715,  0.0000000000000000
  4.2508530452186255,  0.0000000000000000
  4.2818811696362795,  0.0000000000000000
  4.3129092940539335,  0.0000000000000000
  4.3439374184715884,  0.0000000000000000
  4.3749655428892424,  0.0000000000000000
  4.4059936673068965,  0.0000000000000000
  4.4370217917245505,  0.0000000000000000
  4.4680499161422045,  0.0000000000000000
  4.4990780405598594,  0.0000000000000000
  4.5301061649775134,  0.0000000000000000
  4.5611342893951674,  0.0000000000000000
  4.5921624138128214,  0.0000000000000000
  4.6231905382304754,  0.0000000000000000
  4.6542186626481303,  0.0000000000000000
  4.6852467870657843,  0.0000000000000000
  4.7162749114834384,  0.0000000000000000
  4.7473030359010924,  0.0000000000000000
  4.7783311603187464,  0.0000000000000000
  4.8093592847364013,  0.0000000000000000
  4.8403874091540553,  0.0000000000000000
  4.8714155335717093,  0.0000000000000000
  4.9024436579893633,  0.0000000000000000
  4.9334717824070182,  0.0000000000000000
  4.9644999068246722,  0.0000000000000000
  4.9955280312423263,  0.0000000000000000
  5.0265561556599803,  0.0000000000000000
  5.0575842800776343,  0.0000000000000000
  5.0886124044952892,  0.0000000000000000
  5.1196405289129432,  0.0000000000000000
  5.1506686533305972,  0.0000000000000000
  5.1816967777482512,  0.0000000000000000
  5.2127249021659052,  0.0000000000000000
  5.2437530265835601,  0.0000000000000000
  5.2747811510012141,  0.0000000000000000
  5.3058092754188682,  0.0000000000000000
  5.3368373998365222,  0.0000000000000000
  5.3678655242541762,  0.0000000000000000
  5.3988936486718311,  0.0000000000000000
  5.4299217730894851,  0.0000000000000000
  5.4609498975071391,  0.0000000000000000
  5.4919780219247931,  0.0000000000000000
  5.5230061463424480,  0.0000000000000000
  5.5540342707601020,  0.0000000000000000
  5.5850623951777560,  0.0000000000000000
  5.6160905195954101,  0.0000000000000000
  5.6471186440130641,  0.0000000000000000
  5.6781467684307190,  0.0000000000000000
  5.7091748928483730,  0.0000000000000000
  5.7402030172660270,  0.0000000000000000
  5.7712311416836810,  0.0000000000000000
  5.8022592661013350,  0.0000000000000000
  5.8332873905189899,  0.0000000000000000
  5.8643155149366439,  0.0000000000000000
  5.8953436393542979,  0.0000000000000000
  5.9263717637719520,  0.0000000000000000
  5.9573998881896060,  0.0000000000000000
  5.9884280126072609,  0.0000000000000000
  6.0194561370249149,  0.0000000000000000
  6.0504842614425689,  0.0000000000000000
  6.0815123858602229,  0.0000000000000000
  6.1125405102778778,  0.0000000000000000
  6.1435686346955318,  0.0000000000000000
  6.1745967591131858,  0.0000000000000000
  6.2056248835308399,  0.0000000000000000
  0.0000000000000000,  0.0135135135135135
  0.0310281244176542,  0.0135572888682030
  0.0620562488353084,  0.0136137156744542
  0.0930843732529626,  0.0136708167351406
  0.1241124976706168,  0.0137289740861943
  0.1551406220882710,  0.0137879404381905
  0.1861687465059252,  0.0138472398695437
  0.2171968709235794,  0.0139071906930054
  0.2482249953412336,  0.0139682231591530
  0.2792531197588878,  0.0140298480614176
  0.3102812441765420,  0.0140922720921751
  0.3413093685941962,  0.0141551057504852
  0.3723374930118504,  0.0142189445962868
  0.4033656174295046,  0.0142833104545254
  0.4343937418471588,  0.0143486979993350
  0.4654218662648130,  0.0144146155183949
  0.4964499906824672,  0.0144809686422800
  0.5274781151001214,  0.0145478310098701
  0.5585062395177756,  0.0146149855194948
  0.5895343639354298,  0.0146826813912216
  0.6205624883530840,  0.0147505971402116
  0.6515906127707382,  0.0148189948411778
  0.6826187371883924,  0.0148880495621845
  0.7136468616060466,  0.0149573475447618
  0.7446749860237007,  0.0150271610571451
  0.7757031104413550,  0.0150972500074580
  0.8067312348590092,  0.0151677373439880
  0.8377593592766635,  0.0152385871458708
  0.8687874836943176,  0.0153096783310214
  0.8998156081119718,  0.0153812244322609
  0.9308437325296260,  0.0154532317322031
  0.9618718569472802,  0.0155256757792802
  0.9928999813649344,  0.0155988197606436
  1.0239281057825886,  0.0156722091904006
  1.0549562302002429,  0.0157456196036014
  1.0859843546178971,  0.0158192976024953
  1.1170124790355511,  0.0158930478679443
  1.1480406034532054,  0.0159667019371029
  1.1790687278708596,  0.0160407244704783
  1.2100968522885138,  0.0161149754524808
  1.2411249767061681,  0.0161893724181536
  1.2721531011238223,  0.0162639786979667
  1.3031812255414763,  0.0163390132777972
  1.3342093499591305,  0.0164141805424453
  1.3652374743767848,  0.0164893887336668
  1.3962655987944390,  0.0165647179558333
  1.4272937232120932,  0.0166403720275623
  1.4583218476297475,  0.0167161223875600
  1.4893499720474015,  0.0167921776410449
  1.5203780964650557,  0.0168685335661576
  1.5514062208827100,  0.0169453480143147
  1.5824343453003642,  0.0170221172257830
  1.6134624697180184,  0.0170989865821882
  1.6444905941356727,  0.0171758391663919
  1.6755187185533269,  0.0172529216512242
  1.7065468429709809,  0.0173298084015949
  1.7375749673886351,  0.0174066751818062
  1.7686030918062894,  0.0174836700723439
  1.7996312162239436,  0.0175606040691821
  1.8306593406415979,  0.0176376794478676
  1.8616874650592521,  0.0177147888810117
  1.8927155894769061,  0.0177919544905605
  1.9237437138945603,  0.0178692440043691
  1.9547718383122146,  0.0179465171127491
  1.9857999627298688,  0.0180239722329944
  2.0168280871475228,  0.0181013268911158
  2.0478562115651773,  0.0181786438601753
  2.0788843359828313,  0.0182561574399520
  2.1099124604004857,  0.0183339640775580
  2.1409405848181398,  0.0184118731922359
  2.1719687092357942,  0.0184897284014884
  2.2029968336534482,  0.0185676823000336
  2.2340249580711022,  0.0186456693674678
  2.2650530824887567,  0.0187233603919747
  2.2960812069064107,  0.0188007309854700
  2.3271093313240652,  0.0188780723577757
  2.3581374557417192,  0.0189554101922452
  2.3891655801593732,  0.0190325908423526
  2.4201937045770276,  0.0191097052699940
  2.4512218289946817,  0.0191868006803599
  2.4822499534123361,  0.0192639088038029
  2.5132780778299901,  0.0193410013692857
  2.5443062022476446,  0.0194180075387002
  2.5753343266652986,  0.0194950177380606
  2.6063624510829526,  0.0195720294671735
  2.6373905755006071,  0.0196489836380635
  2.6684186999182611,  0.0197262266790566
  2.6994468243359155,  0.0198033202640296
  2.7304749487535696,  0.0198804348899819
  2.7615030731712240,  0.0199574862128669
  2.7925311975888780,  0.0200342582307962
  2.8235593220065320,  0.0201109943050649
  2.8545874464241865,  0.0201874044966535
  2.8856155708418405,  0.0202635522985309
  2.9166436952594950,  0.0203395740119293
  2.9476718196771490,  0.0204154351623930
  2.9786999440948030,  0.0204913258538732
  3.0097280685124574,  0.0205670907020647
  3.0407561929301115,  0.0206426972666205
  3.0717843173477659,  0.0207181798944425
  3.1028124417654199,  0.0207934451602986
  3.1338405661830744,  0.0208684342495711
  3.1648686906007284,  0.0209433202447900
  3.1958968150183824,  0.0210181021035350
  3.2269249394360369,  0.0210927625686519
  3.2579530638536909,  0.0211676664819654
  3.2889811882713453,  0.0212423841477172
  3.3200093126889993,  0.0213171734132468
  3.3510374371066538,  0.0213916916643747
  3.3820655615243078,  0.0214660945189402
  3.4130936859419618,  0.0215402130229013
  3.4441218103596163,  0.0216140943177666
  3.4751499347772703,  0.0216874064231443
  3.5061780591949248,  0.0217605558327574
  3.5372061836125788,  0.0218335070756287
  3.5682343080302332,  0.0219062670929015
  3.5992624324478872,  0.0219788788648242
  3.6302905568655413,  0.0220512857023244
  3.6613186812831957,  0.0221234233803278
  3.6923468057008497,  0.0221954726585510
  3.7233749301185042,  0.0222673004622146
  3.7544030545361582,  0.0223388371204215
  3.7854311789538122,  0.0224101027764521
  3.8164593033714667,  0.0224811765231164
  3.8474874277891207,  0.0225524358894909
  3.8785155522067751,  0.0226235794351033
  3.9095436766244291,  0.0226944684533504
  3.9405718010420836,  0.0227651152271667
  3.9715999254597376,  0.0228355288398587
  4.0026280498773916,  0.0229056887389396
  4.0336561742950456,  0.0229753319228100
  4.0646842987127005,  0.0230445344072523
  4.0957124231303546,  0.0231135187158134
  4.1267405475480086,  0.0231822604838702
  4.1577686719656626,  0.0232507507391728
  4.1887967963833166,  0.0233190173902368
  4.2198249208009715,  0.0233870357029945
  4.2508530452186255,  0.0234548510695746
  4.2818811696362795,  0.0235221941982783
  4.3129092940539335,  0.0235891358515553
  4.3439374184715884,  0.0236560404813318
  4.3749655428892424,  0.0237226902906454
  4.4059936673068965,  0.0237890069048590
  4.4370217917245505,  0.0238552508080689
  4.4680499161422045,  0.0239213268879542
  4.4990780405598594,  0.0239871860379455
  4.5301061649775134,  0.0240527164759522
  4.5611342893951674,  0.0241177945020068
  4.5921624138128214,  0.0241826995006421
  4.6231905382304754,  0.0242471839228838
  4.6542186626481303,  0.0243111045556387
  4.6852467870657843,  0.0243745689133761
  4.7162749114834384,  0.0244377851186213
  4.7473030359010924,  0.0245005851643759
  4.7783311603187464,  0.0245631358128830
  4.8093592847364013,  0.0246252813363374
  4.8403874091540553,  0.0246871717659260
  4.8714155335717093,  0.0247486795547160
  4.9024436579893633,  0.0248099084373712
  4.9334717824070182,  0.0248707676949187
  4.9644999068246722,  0.0249313070677666
  4.9955280312423263,  0.0249914146853841
  5.0265561556599803,  0.0250511515593799
  5.0575842800776343,  0.0251108200279897
  5.0886124044952892,  0.0251702785066089
  5.1196405289129432,  0.0252294249789492
  5.1506686533305972,  0.0252881964770658
  5.1816967777482512,  0.0253465152275112
  5.2127249021659052,  0.0254045466060893
  5.2437530265835601,  0.0254620420230419
  5.2747811510012141,  0.0255187284495143
  5.3058092754188682,  0.0255751275359285
  5.3368373998365222,  0.0256310729734952
  5.3678655242541762,  0.0256866194690071
  5.3988936486718311,  0.0257418784841193
  5.4299217730894851,  0.0257966804565145
  5.4609498975071391,  0.0258511036336793
  5.4919780219247931,  0.0259052153405164
  5.5230061463424480,  0.0259587692841555
  5.5540342707601020,  0.0260118532369983
  5.5850623951777560,  0.0260645892496355
  5.6160905195954101,  0.0261168733546943
  5.6471186440130641,  0.0261688330865123
  5.6781467684307190,  0.0262204695923489
  5.7091748928483730,  0.0262717042945057
  5.7402030172660270,  0.0263226679471893
  5.7712311416836810,  0.0263732171697925
  5.8022592661013350,  0.0264233330754614
  5.8332873905189899,  0.0264730240491781
  5.8643155149366439,  0.0265220975557266
  5.8953436393542979,  0.0265704595943727
  5.9263717637719520,  0.0266184204908774
  5.9573998881896060,  0.0266659572071657
  5.9884280126072609,  0.0267129416131032
  6.0194561370249149,  0.0267593628831973
  6.0504842614425689,  0.0268053359809216
  6.0815123858602229,  0.0268509618690900
  6.1125405102778778,  0.0268960437099516
  6.1435686346955318,  0.0269405281091139
  6.1745967591131858,  0.0269844794090134
  6.2056248835308399,  0.0270281950358653
  0.0000000000000000,  0.0270270270270270
  0.0310281244176542,  0.0271145777364060
  0.0620562488353084,  0.0272274313489085
  0.0930843732529626,  0.0273416334702813
  0.1241124976706168,  0.0274579481723887
  0.1551406220882710,  0.0275758808763810
  0.1861687465059252,  0.0276944797390873
  0.2171968709235794,  0.0278143813860107
  0.2482249953412336,  0.0279364463183060
  0.2792531197588878,  0.0280596961228351
  0.3102812441765420,  0.0281845441843501
  0.3413093685941962,  0.0283102115009705
  0.3723374930118504,  0.0284378891925735
  0.4033656174295046,  0.0285666209090509
  0.4343937418471588,  0.0286973959986699
  0.4654218662648130,  0.0288292310367898
  0.4964499906824672,  0.0289619372845599
  0.5274781151001214,  0.0290956620197403
  0.5585062395177756,  0.0292299710389896
  0.5895343639354298,  0.0293653627824432
  0.6205624883530840,  0.0295011942804232
  0.6515906127707382,  0.0296379896823556
  0.6826187371883924,  0.0297760991243689
  0.7136468616060466,  0.0299146950895237
  0.7446749860237007,  0.0300543221142902
  0.7757031104413550,  0.0301945000149161
  0.8067312348590092,  0.0303354746879761
  0.8377593592766635,  0.0304771742917416
  0.8687874836943176,  0.0306193566620429
  0.8998156081119718,  0.0307624488645219
  0.9308437325296260,  0.0309064634644063
  0.9618718569472802,  0.0310513515585605
  0.9928999813649344,  0.0311976395212872
  1.0239281057825886,  0.0313444183808011
  1.0549562302002429,  0.0314912392072028
  1.0859843546178971,  0.0316385952049906
  1.1170124790355511,  0.0317860957358885
  1.1480406034532054,  0.0319334038742059
  1.1790687278708596,  0.0320814489409566
  1.2100968522885138,  0.0322299509049616
  1.2411249767061681,  0.0323787448363072
  1.2721531011238223,  0.0325279573959334
  1.3031812255414763,  0.0326780265555944
  1.3342093499591305,  0.0328283610848906
  1.3652374743767848,  0.0329787774673337
  1.3962655987944390,  0.0331294359116666
  1.4272937232120932,  0.0332807440551247
  1.4583218476297475,  0.0334322447751200
  1.4893499720474015,  0.0335843552820899
  1.5203780964650557,  0.0337370671323153
  1.5514062208827100,  0.0338906960286294
  1.5824343453003642,  0.0340442344515661
  1.6134624697180184,  0.0341979731643764
  1.6444905941356727,  0.0343516783327839
  1.6755187185533269,  0.0345058433024484
  1.7065468429709809,  0.0346596168031897
  1.7375749673886351,  0.0348133503636123
  1.7686030918062894,  0.0349673401446878
  1.7996312162239436,  0.0351212081383642
  1.8306593406415979,  0.0352753588957352
  1.8616874650592521,  0.0354295777620234
  1.8927155894769061,  0.0355839089811210
  1.9237437138945603,  0.0357384880087381
  1.9547718383122146,  0.0358930342254981
  1.9857999627298688,  0.0360479444659889
  2.0168280871475228,  0.0362026537822315
  2.0478562115651773,  0.0363572877203506
  2.0788843359828313,  0.0365123148799040
  2.1099124604004857,  0.0366679281551160
  2.1409405848181398,  0.0368237463844718
  2.1719687092357942,  0.0369794568029768
  2.2029968336534482,  0.0371353646000671
  2.2340249580711022,  0.0372913387349356
  2.2650530824887567,  0.0374467207839493
  2.2960812069064107,  0.0376014619709400
  2.3271093313240652,  0.0377561447155514
  2.3581374557417192,  0.0379108203844903
  2.3891655801593732,  0.0380651816847052
  2.4201937045770276,  0.0382194105399880
  2.4512218289946817,  0.0383736013607198
  2.4822499534123361,  0.0385278176076058
  2.5132780778299901,  0.0386820027385715
  2.5443062022476446,  0.0388360150774004
  2.5753343266652986,  0.0389900354761212
  2.6063624510829526,  0.0391440589343469
  2.6373905755006071,  0.0392979672761271
  2.6684186999182611,  0.0394524533581132
  2.6994468243359155,  0.0396066405280593
  2.7304749487535696,  0.0397608697799637
  2.7615030731712240,  0.0399149724257339
  2.7925311975888780,  0.0400685164615924
  2.8235593220065320,  0.0402219886101299
  2.8545874464241865,  0.0403748089933071
  2.8856155708418405,  0.0405271045970619
  2.9166436952594950,  0.0406791480238585
  2.9476718196771490,  0.0408308703247861
  2.9786999440948030,  0.0409826517077465
  3.0097280685124574,  0.0411341814041294
  3.0407561929301115,  0.0412853945332409
  3.0717843173477659,  0.0414363597888849
  3.1028124417654199,  0.0415868903205972
  3.1338405661830744,  0.0417368684991421
  3.1648686906007284,  0.0418866404895800
  3.1958968150183824,  0.0420362042070700
  3.2269249394360369,  0.0421855251373037
  3.2579530638536909,  0.0423353329639307
  3.2889811882713453,  0.0424847682954343
  3.3200093126889993,  0.0426343468264936
  3.3510374371066538,  0.0427833833287494
  3.3820655615243078,  0.0429321890378805
  3.4130936859419618,  0.0430804260458027
  3.4441218103596163,  0.0432281886355331
  3.4751499347772703,  0.0433748128462885
  3.5061780591949248,  0.0435211116655149
  3.5372061836125788,  0.0436670141512573
  3.5682343080302332,  0.0438125341858030
  3.5992624324478872,  0.0439577577296484
  3.6302905568655413,  0.0441025714046488
  3.6613186812831957,  0.0442468467606556
  3.6923468057008497,  0.0443909453171020
  3.7233749301185042,  0.0445346009244292
  3.7544030545361582,  0.0446776742408430
  3.7854311789538122,  0.0448202055529043
  3.8164593033714667,  0.0449623530462327
  3.8474874277891207,  0.0451048717789818
  3.8785155522067751,  0.0452471588702066
  3.9095436766244291,  0.0453889369067008
  3.9405718010420836,  0.0455302304543334
  3.9715999254597376,  0.0456710576797174
  4.0026280498773916,  0.0458113774778793
  4.0336561742950456,  0.0459506638456200
  4.0646842987127005,  0.0460890688145047
  4.0957124231303546,  0.0462270374316268
  4.1267405475480086,  0.0463645209677405
  4.1577686719656626,  0.0465015014783457
  4.1887967963833166,  0.0466380347804736
  4.2198249208009715,  0.0467740714059889
  4.2508530452186255,  0.0469097021391492
  4.2818811696362795,  0.0470443883965566
  4.3129092940539335,  0.0471782717031106
  4.3439374184715884,  0.0473120809626636
  4.3749655428892424,  0.0474453805812907
  4.4059936673068965,  0.0475780138097181
  4.4370217917245505,  0.0477105016161379
  4.4680499161422045,  0.0478426537759084
  4.4990780405598594,  0.0479743720758910
  4.5301061649775134,  0.0481054329519044
  4.5611342893951674,  0.0482355890040135
  4.5921624138128214,  0.0483653990012843
  4.6231905382304754,  0.0484943678457676
  4.6542186626481303,  0.0486222091112773
  4.6852467870657843,  0.0487491378267523
  4.7162749114834384,  0.0488755702372427
  4.7473030359010924,  0.0490011703287519
  4.7783311603187464,  0.0491262716257661
  4.8093592847364013,  0.0492505626726748
  4.8403874091540553,  0.0493743435318520
  4.8714155335717093,  0.0494973591094320
  4.9024436579893633,  0.0496198168747423
  4.9334717824070182,  0.0497415353898374
  4.9644999068246722,  0.0498626141355331
  4.9955280312423263,  0.0499828293707681
  5.0265561556599803,  0.0501023031187599
  5.0575842800776343,  0.0502216400559794
  5.0886124044952892,  0.0503405570132178
  5.1196405289129432,  0.0504588499578985
  5.1506686533305972,  0.0505763929541315
  5.1816967777482512,  0.0506930304550224
  5.2127249021659052,  0.0508090932121786
  5.2437530265835601,  0.0509240840460837
  5.2747811510012141,  0.0510374568990287
  5.3058092754188682,  0.0511502550718570
  5.3368373998365222,  0.0512621459469904
  5.3678655242541762,  0.0513732389380141
  5.3988936486718311,  0.0514837569682386
  5.4299217730894851,  0.0515933609130291
  5.4609498975071391,  0.0517022072673586
  5.4919780219247931,  0.0518104306810327
  5.5230061463424480,  0.0519175385683110
  5.5540342707601020,  0.0520237064739965
  5.5850623951777560,  0.0521291784992711
  5.6160905195954101,  0.0522337467093886
  5.6471186440130641,  0.0523376661730246
  5.6781467684307190,  0.0524409391846979
  5.7091748928483730,  0.0525434085890114
  5.7402030172660270,  0.0526453358943787
  5.7712311416836810,  0.0527464343395851
  5.8022592661013350,  0.0528466661509229
  5.8332873905189899,  0.0529460480983562
  5.8643155149366439,  0.0530441951114532
  5.8953436393542979,  0.0531409191887455
  5.9263717637719520,  0.0532368409817549
  5.9573998881896060,  0.0533319144143313
  5.9884280126072609,  0.0534258832262065
  6.0194561370249149,  0.0535187257663946
  6.0504842614425689,  0.0536106719618431
  6.0815123858602229,  0.0537019237381800
  6.1125405102778778,  0.0537920874199033
  6.1435686346955318,  0.0538810562182278
  6.1745967591131858,  0.0539689588180268
  6.2056248835308399,  0.0540563900717306
  0.0000000000000000,  0.0405405405405405
  0.0310281244176542,  0.0406718666046090
  0.0620562488353084,  0.0408411470233627
  0.0930843732529626,  0.0410124502054219
  0.1241124976706168,  0.0411869222585830
  0.1551406220882710,  0.0413638213145715
  0.1861687465059252,  0.0415417196086310
  0.2171968709235794,  0.0417215720790161
  0.2482249953412336,  0.0419046694774590
  0.2792531197588878,  0.0420895441842527
  0.3102812441765420,  0.0422768162765252
  0.3413093685941962,  0.0424653172514557
  0.3723374930118504,  0.0426568337888603
  0.4033656174295046,  0.0428499313635763
  0.4343937418471588,  0.0430460939980049
  0.4654218662648130,  0.0432438465551847
  0.4964499906824672,  0.0434429059268399
  0.5274781151001214,  0.0436434930296104
  0.5585062395177756,  0.0438449565584844
  0.5895343639354298,  0.0440480441736648
  0.6205624883530840,  0.0442517914206348
  0.6515906127707382,  0.0444569845235335
  0.6826187371883924,  0.0446641486865534
  0.7136468616060466,  0.0448720426342855
  0.7446749860237007,  0.0450814831714354
  0.7757031104413550,  0.0452917500223741
  0.8067312348590092,  0.0455032120319641
  0.8377593592766635,  0.0457157614376124
  0.8687874836943176,  0.0459290349930643
  0.8998156081119718,  0.0461436732967828
  0.9308437325296260,  0.0463596951966094
  0.9618718569472802,  0.0465770273378407
  0.9928999813649344,  0.0467964592819307
  1.0239281057825886,  0.0470166275712017
  1.0549562302002429,  0.0472368588108042
  1.0859843546178971,  0.0474578928074858
  1.1170124790355511,  0.0476791436038328
  1.1480406034532054,  0.0479001058113088
  1.1790687278708596,  0.0481221734114348
  1.2100968522885138,  0.0483449263574424
  1.2411249767061681,  0.0485681172544608
  1.2721531011238223,  0.0487919360939000
  1.3031812255414763,  0.0490170398333916
  1.3342093499591305,  0.0492425416273359
  1.3652374743767848,  0.0494681662010005
  1.3962655987944390,  0.0496941538674999
  1.4272937232120932,  0.0499211160826870
  1.4583218476297475,  0.0501483671626800
  1.4893499720474015,  0.0503765329231348
  1.5203780964650557,  0.0506056006984729
  1.5514062208827100,  0.0508360440429440
  1.5824343453003642,  0.0510663516773491
  1.6134624697180184,  0.0512969597465646
  1.6444905941356727,  0.0515275174991758
  1.6755187185533269,  0.0517587649536725
  1.7065468429709809,  0.0519894252047846
  1.7375749673886351,  0.0522200255454185
  1.7686030918062894,  0.0524510102170317
  1.7996312162239436,  0.0526818122075463
  1.8306593406415979,  0.0529130383436028
  1.8616874650592521,  0.0531443666430350
  1.8927155894769061,  0.0533758634716815
  1.9237437138945603,  0.0536077320131072
  1.9547718383122146,  0.0538395513382472
  1.9857999627298688,  0.0540719166989833
  2.0168280871475228,  0.0543039806733473
  2.0478562115651773,  0.0545359315805260
  2.0788843359828313,  0.0547684723198559
  2.1099124604004857,  0.0550018922326741
  2.1409405848181398,  0.0552356195767077
  2.1719687092357942,  0.0554691852044651
  2.2029968336534482,  0.0557030469001007
  2.2340249580711022,  0.0559370081024034
  2.2650530824887567,  0.0561700811759240
  2.2960812069064107,  0.0564021929564100
  2.3271093313240652,  0.0566342170733271
  2.3581374557417192,  0.0568662305767355
  2.3891655801593732,  0.0570977725270578
  2.4201937045770276,  0.0573291158099820
  2.4512218289946817,  0.0575604020410797
  2.4822499534123361,  0.0577917264114087
  2.5132780778299901,  0.0580230041078572
  2.5443062022476446,  0.0582540226161005
  2.5753343266652986,  0.0584850532141817
  2.6063624510829526,  0.0587160884015204
  2.6373905755006071,  0.0589469509141906
  2.6684186999182611,  0.0591786800371698
  2.6994468243359155,  0.0594099607920889
  2.7304749487535696,  0.0596413046699456
  2.7615030731712240,  0.0598724586386008
  2.7925311975888780,  0.0601027746923886
  2.8235593220065320,  0.0603329829151948
  2.8545874464241865,  0.0605622134899606
  2.8856155708418405,  0.0607906568955928
  2.9166436952594950,  0.0610187220357878
  2.9476718196771490,  0.0612463054871791
  2.9786999440948030,  0.0614739775616197
  3.0097280685124574,  0.0617012721061941
  3.0407561929301115,  0.0619280917998614
  3.0717843173477659,  0.0621545396833274
  3.1028124417654199,  0.0623803354808958
  3.1338405661830744,  0.0626053027487132
  3.1648686906007284,  0.0628299607343700
  3.1958968150183824,  0.0630543063106050
  3.2269249394360369,  0.0632782877059556
  3.2579530638536909,  0.0635029994458961
  3.2889811882713453,  0.0637271524431515
  3.3200093126889993,  0.0639515202397404
  3.3510374371066538,  0.0641750749931241