TITLE = "Final State"
VARIABLES = "X", "Y", "rho", "u", "v", "e", "p", "c", "M"
ZONE I=200, J=200, DATAPACKING=POINT
0.015000,	 0.004975,	 1.072358,	 0.183273,	 0.012775,	 20.427711,	 8.755089,	 3.380838,	 0.054341 
0.045000,	 0.004975,	 1.043278,	 0.137324,	 0.007892,	 20.354186,	 8.490080,	 3.375359,	 0.040752 
0.075000,	 0.004975,	 1.029604,	 0.108359,	 0.004518,	 20.324069,	 8.367871,	 3.373157,	 0.032152 
0.105000,	 0.004975,	 1.022024,	 0.090130,	 0.002769,	 20.310823,	 8.301599,	 3.372208,	 0.026740 
0.135000,	 0.004975,	 1.017210,	 0.077933,	 0.001852,	 20.304514,	 8.260348,	 3.371769,	 0.023120 
0.165000,	 0.004975,	 1.013838,	 0.069213,	 0.001332,	 20.301369,	 8.231945,	 3.371561,	 0.020532 
0.195000,	 0.004975,	 1.011308,	 0.062633,	 0.001012,	 20.299849,	 8.210968,	 3.371471,	 0.018580 
0.225000,	 0.004975,	 1.009319,	 0.057463,	 0.000800,	 20.299260,	 8.194704,	 3.371448,	 0.017046 
0.255000,	 0.004975,	 1.007699,	 0.053275,	 0.000651,	 20.299261,	 8.181648,	 3.371467,	 0.015803 
0.285000,	 0.004975,	 1.006345,	 0.049802,	 0.000541,	 20.299666,	 8.170892,	 3.371516,	 0.014772 
0.315000,	 0.004975,	 1.005190,	 0.046869,	 0.000457,	 20.300363,	 8.161848,	 3.371585,	 0.013902 
0.345000,	 0.004975,	 1.004187,	 0.044355,	 0.000392,	 20.301282,	 8.154119,	 3.371671,	 0.013156 
0.375000,	 0.004975,	 1.003304,	 0.042174,	 0.000340,	 20.302373,	 8.147423,	 3.371770,	 0.012508 
0.405000,	 0.004975,	 1.002517,	 0.040262,	 0.000298,	 20.303598,	 8.141555,	 3.371878,	 0.011941 
0.435000,	 0.004975,	 1.001808,	 0.038572,	 0.000263,	 20.304930,	 8.136362,	 3.371994,	 0.011439 
0.465000,	 0.004975,	 1.001165,	 0.037066,	 0.000233,	 20.306344,	 8.131726,	 3.372116,	 0.010992 
0.495000,	 0.004975,	 1.000577,	 0.035716,	 0.000208,	 20.307817,	 8.127555,	 3.372243,	 0.010591 
0.525000,	 0.004975,	 1.000035,	 0.034499,	 0.000187,	 20.309331,	 8.123777,	 3.372372,	 0.010230 
0.555000,	 0.004975,	 0.999533,	 0.033396,	 0.000169,	 20.310866,	 8.120333,	 3.372502,	 0.009903 
0.585000,	 0.004975,	 0.999067,	 0.032392,	 0.000153,	 20.312405,	 8.117175,	 3.372633,	 0.009604 
0.615000,	 0.004975,	 0.998633,	 0.031474,	 0.000139,	 20.313930,	 8.114266,	 3.372762,	 0.009332 
0.645000,	 0.004975,	 0.998227,	 0.030632,	 0.000127,	 20.315424,	 8.111572,	 3.372888,	 0.009082 
0.675000,	 0.004975,	 0.997846,	 0.029857,	 0.000116,	 20.316870,	 8.109067,	 3.373010,	 0.008852 
0.705000,	 0.004975,	 0.997489,	 0.029141,	 0.000106,	 20.318252,	 8.106728,	 3.373127,	 0.008639 
0.735000,	 0.004975,	 0.997155,	 0.028479,	 0.000098,	 20.319556,	 8.104535,	 3.373236,	 0.008443 
0.765000,	 0.004975,	 0.996841,	 0.027864,	 0.000090,	 20.320766,	 8.102473,	 3.373338,	 0.008260 
0.795000,	 0.004975,	 0.996547,	 0.027292,	 0.000083,	 20.321869,	 8.100527,	 3.373431,	 0.008090 
0.825000,	 0.004975,	 0.996271,	 0.026759,	 0.000077,	 20.322853,	 8.098685,	 3.373514,	 0.007932 
0.855000,	 0.004975,	 0.996013,	 0.026261,	 0.000071,	 20.323707,	 8.096937,	 3.373586,	 0.007784 
0.885000,	 0.004975,	 0.995773,	 0.025795,	 0.000066,	 20.324423,	 8.095274,	 3.373646,	 0.007646 
0.915000,	 0.004975,	 0.995550,	 0.025358,	 0.000062,	 20.324992,	 8.093688,	 3.373695,	 0.007516 
0.945000,	 0.004975,	 0.995342,	 0.024948,	 0.000058,	 20.325408,	 8.092172,	 3.373730,	 0.007395 
0.975000,	 0.004975,	 0.995150,	 0.024562,	 0.000054,	 20.325670,	 8.090720,	 3.373753,	 0.007280 
1.005000,	 0.004975,	 0.994974,	 0.024199,	 0.000051,	 20.325773,	 8.089327,	 3.373762,	 0.007173 
1.035000,	 0.004975,	 0.994811,	 0.023856,	 0.000047,	 20.325720,	 8.087989,	 3.373758,	 0.007071 
1.065000,	 0.004975,	 0.994663,	 0.023533,	 0.000045,	 20.325511,	 8.086701,	 3.373741,	 0.006975 
1.095000,	 0.004975,	 0.994527,	 0.023227,	 0.000042,	 20.325150,	 8.085460,	 3.373712,	 0.006885 
1.125000,	 0.004975,	 0.994405,	 0.022938,	 0.000040,	 20.324643,	 8.084263,	 3.373671,	 0.006799 
1.155000,	 0.004975,	 0.994294,	 0.022665,	 0.000037,	 20.323997,	 8.083107,	 3.373617,	 0.006718 
1.185000,	 0.004975,	 0.994194,	 0.022405,	 0.000035,	 20.323218,	 8.081991,	 3.373553,	 0.006641 
1.215000,	 0.004975,	 0.994105,	 0.022159,	 0.000034,	 20.322317,	 8.080911,	 3.373479,	 0.006569 
1.245000,	 0.004975,	 0.994026,	 0.021926,	 0.000032,	 20.321302,	 8.079866,	 3.373395,	 0.006500 
1.275000,	 0.004975,	 0.993956,	 0.021704,	 0.000030,	 20.320186,	 8.078855,	 3.373303,	 0.006434 
1.305000,	 0.004975,	 0.993894,	 0.021494,	 0.000029,	 20.318978,	 8.077876,	 3.373203,	 0.006372 
1.335000,	 0.004975,	 0.993841,	 0.021294,	 0.000028,	 20.317689,	 8.076928,	 3.373096,	 0.006313 
1.365000,	 0.004975,	 0.993794,	 0.021104,	 0.000026,	 20.316332,	 8.076009,	 3.372984,	 0.006257 
1.395000,	 0.004975,	 0.993753,	 0.020923,	 0.000025,	 20.314917,	 8.075119,	 3.372867,	 0.006203 
1.425000,	 0.004975,	 0.993719,	 0.020751,	 0.000024,	 20.313456,	 8.074257,	 3.372746,	 0.006153 
1.455000,	 0.004975,	 0.993689,	 0.020587,	 0.000023,	 20.311958,	 8.073423,	 3.372622,	 0.006104 
1.485000,	 0.004975,	 0.993664,	 0.020432,	 0.000022,	 20.310436,	 8.072614,	 3.372496,	 0.006058 
1.515000,	 0.004975,	 0.993643,	 0.020284,	 0.000021,	 20.308897,	 8.071832,	 3.372368,	 0.006015 
1.545000,	 0.004975,	 0.993625,	 0.020143,	 0.000020,	 20.307351,	 8.071074,	 3.372240,	 0.005973 
1.575000,	 0.004975,	 0.993610,	 0.020010,	 0.000019,	 20.305807,	 8.070341,	 3.372112,	 0.005934 
1.605000,	 0.004975,	 0.993598,	 0.019883,	 0.000018,	 20.304273,	 8.069633,	 3.371985,	 0.005896 
1.635000,	 0.004975,	 0.993587,	 0.019762,	 0.000018,	 20.302755,	 8.068947,	 3.371859,	 0.005861 
1.665000,	 0.004975,	 0.993579,	 0.019648,	 0.000017,	 20.301260,	 8.068285,	 3.371735,	 0.005827 
1.695000,	 0.004975,	 0.993572,	 0.019540,	 0.000016,	 20.299794,	 8.067645,	 3.371614,	 0.005795 
1.725000,	 0.004975,	 0.993566,	 0.019437,	 0.000016,	 20.298362,	 8.067027,	 3.371495,	 0.005765 
1.755000,	 0.004975,	 0.993560,	 0.019340,	 0.000015,	 20.296967,	 8.066431,	 3.371379,	 0.005736 
1.785000,	 0.004975,	 0.993556,	 0.019248,	 0.000014,	 20.295614,	 8.065856,	 3.371267,	 0.005709 
1.815000,	 0.004975,	 0.993551,	 0.019161,	 0.000014,	 20.294306,	 8.065301,	 3.371158,	 0.005684 
1.845000,	 0.004975,	 0.993547,	 0.019080,	 0.000013,	 20.293045,	 8.064766,	 3.371054,	 0.005660 
1.875000,	 0.004975,	 0.993543,	 0.019003,	 0.000013,	 20.291832,	 8.064250,	 3.370953,	 0.005637 
1.905000,	 0.004975,	 0.993538,	 0.018930,	 0.000012,	 20.290669,	 8.063752,	 3.370857,	 0.005616 
1.935000,	 0.004975,	 0.993534,	 0.018863,	 0.000012,	 20.289558,	 8.063273,	 3.370764,	 0.005596 
1.965000,	 0.004975,	 0.993529,	 0.018799,	 0.000011,	 20.288498,	 8.062811,	 3.370676,	 0.005577 
1.995000,	 0.004975,	 0.993523,	 0.018740,	 0.000011,	 20.287489,	 8.062366,	 3.370593,	 0.005560 
2.025000,	 0.004975,	 0.993517,	 0.018685,	 0.000010,	 20.286531,	 8.061937,	 3.370513,	 0.005544 
2.055000,	 0.004975,	 0.993510,	 0.018633,	 0.000010,	 20.285623,	 8.061522,	 3.370438,	 0.005528 
2.085000,	 0.004975,	 0.993503,	 0.018586,	 0.000009,	 20.284765,	 8.061122,	 3.370367,	 0.005514 
2.115000,	 0.004975,	 0.993495,	 0.018542,	 0.000009,	 20.283954,	 8.060736,	 3.370299,	 0.005502 
2.145000,	 0.004975,	 0.993487,	 0.018501,	 0.000009,	 20.283190,	 8.060362,	 3.370236,	 0.005490 
2.175000,	 0.004975,	 0.993477,	 0.018464,	 0.000008,	 20.282470,	 8.060001,	 3.370176,	 0.005479 
2.205000,	 0.004975,	 0.993467,	 0.018430,	 0.000008,	 20.281793,	 8.059650,	 3.370120,	 0.005469 
2.235000,	 0.004975,	 0.993456,	 0.018399,	 0.000007,	 20.281157,	 8.059309,	 3.370067,	 0.005460 
2.265000,	 0.004975,	 0.993445,	 0.018372,	 0.000007,	 20.280559,	 8.058978,	 3.370018,	 0.005451 
2.295000,	 0.004975,	 0.993432,	 0.018346,	 0.000007,	 20.279998,	 8.058655,	 3.369971,	 0.005444 
2.325000,	 0.004975,	 0.993419,	 0.018324,	 0.000007,	 20.279470,	 8.058340,	 3.369927,	 0.005438 
2.355000,	 0.004975,	 0.993405,	 0.018304,	 0.000006,	 20.278975,	 8.058031,	 3.369886,	 0.005432 
2.385000,	 0.004975,	 0.993391,	 0.018286,	 0.000006,	 20.278509,	 8.057728,	 3.369847,	 0.005426 
2.415000,	 0.004975,	 0.993376,	 0.018271,	 0.000006,	 20.278069,	 8.057430,	 3.369811,	 0.005422 
2.445000,	 0.004975,	 0.993360,	 0.018258,	 0.000006,	 20.277655,	 8.057137,	 3.369776,	 0.005418 
2.475000,	 0.004975,	 0.993343,	 0.018247,	 0.000005,	 20.277263,	 8.056846,	 3.369744,	 0.005415 
2.505000,	 0.004975,	 0.993326,	 0.018237,	 0.000005,	 20.276892,	 8.056559,	 3.369713,	 0.005412 
2.535000,	 0.004975,	 0.993308,	 0.018229,	 0.000005,	 20.276539,	 8.056273,	 3.369684,	 0.005410 
2.565000,	 0.004975,	 0.993289,	 0.018223,	 0.000005,	 20.276202,	 8.055989,	 3.369656,	 0.005408 
2.595000,	 0.004975,	 0.993270,	 0.018218,	 0.000005,	 20.275879,	 8.055705,	 3.369629,	 0.005407 
2.625000,	 0.004975,	 0.993250,	 0.018214,	 0.000005,	 20.275569,	 8.055421,	 3.369603,	 0.005405 
2.655000,	 0.004975,	 0.993230,	 0.018212,	 0.000005,	 20.275270,	 8.055137,	 3.369578,	 0.005405 
2.685000,	 0.004975,	 0.993209,	 0.018210,	 0.000004,	 20.274981,	 8.054853,	 3.369554,	 0.005404 
2.715000,	 0.004975,	 0.993188,	 0.018210,	 0.000004,	 20.274699,	 8.054566,	 3.369531,	 0.005404 
2.745000,	 0.004975,	 0.993166,	 0.018210,	 0.000004,	 20.274424,	 8.054279,	 3.369508,	 0.005404 
2.775000,	 0.004975,	 0.993143,	 0.018211,	 0.000004,	 20.274154,	 8.053989,	 3.369486,	 0.005405 
2.805000,	 0.004975,	 0.993120,	 0.018212,	 0.000004,	 20.273889,	 8.053697,	 3.369464,	 0.005405 
2.835000,	 0.004975,	 0.993097,	 0.018214,	 0.000004,	 20.273628,	 8.053403,	 3.369442,	 0.005406 
2.865000,	 0.004975,	 0.993073,	 0.018217,	 0.000004,	 20.273369,	 8.053107,	 3.369420,	 0.005407 
2.895000,	 0.004975,	 0.993049,	 0.018219,	 0.000004,	 20.273112,	 8.052808,	 3.369399,	 0.005407 
2.925000,	 0.004975,	 0.993024,	 0.018222,	 0.000004,	 20.272856,	 8.052507,	 3.369378,	 0.005408 
2.955000,	 0.004975,	 0.992999,	 0.018225,	 0.000004,	 20.272601,	 8.052204,	 3.369357,	 0.005409 
2.985000,	 0.004975,	 0.992974,	 0.018229,	 0.000004,	 20.272347,	 8.051898,	 3.369335,	 0.005410 
3.015000,	 0.004975,	 0.992948,	 0.018232,	 0.000004,	 20.272093,	 8.051590,	 3.369314,	 0.005411 
3.045000,	 0.004975,	 0.992922,	 0.018235,	 0.000004,	 20.271840,	 8.051280,	 3.369293,	 0.005412 
3.075000,	 0.004975,	 0.992896,	 0.018238,	 0.000004,	 20.271586,	 8.050968,	 3.369272,	 0.005413 
3.105000,	 0.004975,	 0.992870,	 0.018241,	 0.000004,	 20.271331,	 8.050654,	 3.369251,	 0.005414 
3.135000,	 0.004975,	 0.992844,	 0.018244,	 0.000004,	 20.271077,	 8.050340,	 3.369230,	 0.005415 
3.165000,	 0.004975,	 0.992817,	 0.018246,	 0.000004,	 20.270822,	 8.050024,	 3.369209,	 0.005416 
3.195000,	 0.004975,	 0.992791,	 0.018249,	 0.000004,	 20.270568,	 8.049707,	 3.369188,	 0.005416 
3.225000,	 0.004975,	 0.992764,	 0.018251,	 0.000004,	 20.270313,	 8.049390,	 3.369166,	 0.005417 
3.255000,	 0.004975,	 0.992737,	 0.018253,	 0.000004,	 20.270058,	 8.049072,	 3.369145,	 0.005418 
3.285000,	 0.004975,	 0.992711,	 0.018255,	 0.000004,	 20.269803,	 8.048754,	 3.369124,	 0.005418 
3.315000,	 0.004975,	 0.992684,	 0.018256,	 0.000004,	 20.269548,	 8.048437,	 3.369103,	 0.005419 
3.345000,	 0.004975,	 0.992657,	 0.018257,	 0.000003,	 20.269293,	 8.048119,	 3.369082,	 0.005419 
3.375000,	 0.004975,	 0.992631,	 0.018258,	 0.000003,	 20.269039,	 8.047803,	 3.369061,	 0.005419 
3.405000,	 0.004975,	 0.992604,	 0.018259,	 0.000003,	 20.268786,	 8.047487,	 3.369039,	 0.005420 
3.435000,	 0.004975,	 0.992578,	 0.018260,	 0.000003,	 20.268533,	 8.047172,	 3.369018,	 0.005420 
3.465000,	 0.004975,	 0.992551,	 0.018260,	 0.000003,	 20.268281,	 8.046858,	 3.368997,	 0.005420 
3.495000,	 0.004975,	 0.992525,	 0.018260,	 0.000003,	 20.268030,	 8.046545,	 3.368977,	 0.005420 
3.525000,	 0.004975,	 0.992499,	 0.018260,	 0.000003,	 20.267779,	 8.046234,	 3.368956,	 0.005420 
3.555000,	 0.004975,	 0.992473,	 0.018260,	 0.000003,	 20.267530,	 8.045923,	 3.368935,	 0.005420 
3.585000,	 0.004975,	 0.992447,	 0.018260,	 0.000003,	 20.267281,	 8.045615,	 3.368914,	 0.005420 
3.615000,	 0.004975,	 0.992421,	 0.018259,	 0.000003,	 20.267034,	 8.045307,	 3.368894,	 0.005420 
3.645000,	 0.004975,	 0.992396,	 0.018259,	 0.000003,	 20.266788,	 8.045002,	 3.368873,	 0.005420 
3.675000,	 0.004975,	 0.992370,	 0.018258,	 0.000003,	 20.266542,	 8.044697,	 3.368853,	 0.005420 
3.705000,	 0.004975,	 0.992345,	 0.018257,	 0.000003,	 20.266298,	 8.044394,	 3.368833,	 0.005419 
3.735000,	 0.004975,	 0.992319,	 0.018256,	 0.000003,	 20.266055,	 8.044092,	 3.368812,	 0.005419 
3.765000,	 0.004975,	 0.992294,	 0.018255,	 0.000003,	 20.265812,	 8.043792,	 3.368792,	 0.005419 
3.795000,	 0.004975,	 0.992269,	 0.018254,	 0.000003,	 20.265571,	 8.043493,	 3.368772,	 0.005419 
3.825000,	 0.004975,	 0.992244,	 0.018253,	 0.000003,	 20.265331,	 8.043195,	 3.368752,	 0.005418 
3.855000,	 0.004975,	 0.992219,	 0.018252,	 0.000003,	 20.265091,	 8.042898,	 3.368732,	 0.005418 
3.885000,	 0.004975,	 0.992194,	 0.018251,	 0.000003,	 20.264853,	 8.042602,	 3.368713,	 0.005418 
3.915000,	 0.004975,	 0.992170,	 0.018250,	 0.000003,	 20.264615,	 8.042307,	 3.368693,	 0.005418 
3.945000,	 0.004975,	 0.992145,	 0.018249,	 0.000003,	 20.264378,	 8.042013,	 3.368673,	 0.005417 
3.975000,	 0.004975,	 0.992120,	 0.018248,	 0.000003,	 20.264141,	 8.041720,	 3.368653,	 0.005417 
4.005000,	 0.004975,	 0.992096,	 0.018247,	 0.000003,	 20.263906,	 8.041428,	 3.368634,	 0.005417 
4.035000,	 0.004975,	 0.992071,	 0.018246,	 0.000003,	 20.263671,	 8.041137,	 3.368614,	 0.005416 
4.065000,	 0.004975,	 0.992047,	 0.018245,	 0.000003,	 20.263437,	 8.040846,	 3.368595,	 0.005416 
4.095000,	 0.004975,	 0.992023,	 0.018244,	 0.000003,	 20.263203,	 8.040556,	 3.368575,	 0.005416 
4.125000,	 0.004975,	 0.991998,	 0.018243,	 0.000003,	 20.262970,	 8.040267,	 3.368556,	 0.005416 
4.155000,	 0.004975,	 0.991974,	 0.018242,	 0.000003,	 20.262738,	 8.039979,	 3.368537,	 0.005415 
4.185000,	 0.004975,	 0.991950,	 0.018240,	 0.000003,	 20.262506,	 8.039691,	 3.368518,	 0.005415 
4.215000,	 0.004975,	 0.991926,	 0.018239,	 0.000003,	 20.262275,	 8.039404,	 3.368498,	 0.005415 
4.245000,	 0.004975,	 0.991902,	 0.018238,	 0.000003,	 20.262045,	 8.039117,	 3.368479,	 0.005414 
4.275000,	 0.004975,	 0.991878,	 0.018237,	 0.000003,	 20.261815,	 8.038831,	 3.368460,	 0.005414 
4.305000,	 0.004975,	 0.991854,	 0.018236,	 0.000003,	 20.261586,	 8.038546,	 3.368441,	 0.005414 
4.335000,	 0.004975,	 0.991830,	 0.018235,	 0.000003,	 20.261357,	 8.038262,	 3.368422,	 0.005414 
4.365000,	 0.004975,	 0.991806,	 0.018234,	 0.000003,	 20.261129,	 8.037978,	 3.368403,	 0.005413 
4.395000,	 0.004975,	 0.991782,	 0.018233,	 0.000003,	 20.260902,	 8.037695,	 3.368384,	 0.005413 
4.425000,	 0.004975,	 0.991758,	 0.018232,	 0.000003,	 20.260675,	 8.037412,	 3.368365,	 0.005413 
4.455000,	 0.004975,	 0.991735,	 0.018231,	 0.000003,	 20.260449,	 8.037131,	 3.368347,	 0.005412 
4.485000,	 0.004975,	 0.991711,	 0.018230,	 0.000003,	 20.260224,	 8.036850,	 3.368328,	 0.005412 
4.515000,	 0.004975,	 0.991688,	 0.018229,	 0.000003,	 20.259999,	 8.036570,	 3.368309,	 0.005412 
4.545000,	 0.004975,	 0.991664,	 0.018228,	 0.000003,	 20.259775,	 8.036290,	 3.368291,	 0.005412 
4.575000,	 0.004975,	 0.991641,	 0.018227,	 0.000003,	 20.259552,	 8.036011,	 3.368272,	 0.005411 
4.605000,	 0.004975,	 0.991617,	 0.018226,	 0.000003,	 20.259329,	 8.035733,	 3.368253,	 0.005411 
4.635000,	 0.004975,	 0.991594,	 0.018224,	 0.000003,	 20.259107,	 8.035456,	 3.368235,	 0.005411 
4.665000,	 0.004975,	 0.991571,	 0.018223,	 0.000003,	 20.258886,	 8.035180,	 3.368217,	 0.005410 
4.695000,	 0.004975,	 0.991547,	 0.018222,	 0.000003,	 20.258665,	 8.034904,	 3.368198,	 0.005410 
4.725000,	 0.004975,	 0.991524,	 0.018221,	 0.000003,	 20.258444,	 8.034629,	 3.368180,	 0.005410 
4.755000,	 0.004975,	 0.991501,	 0.018220,	 0.000003,	 20.258225,	 8.034354,	 3.368162,	 0.005410 
4.785000,	 0.004975,	 0.991478,	 0.018219,	 0.000003,	 20.258006,	 8.034080,	 3.368143,	 0.005409 
4.815000,	 0.004975,	 0.991455,	 0.018218,	 0.000003,	 20.257788,	 8.033808,	 3.368125,	 0.005409 
4.845000,	 0.004975,	 0.991432,	 0.018217,	 0.000003,	 20.257570,	 8.033535,	 3.368107,	 0.005409 
4.875000,	 0.004975,	 0.991409,	 0.018216,	 0.000003,	 20.257353,	 8.033264,	 3.368089,	 0.005408 
4.905000,	 0.004975,	 0.991386,	 0.018215,	 0.000003,	 20.257136,	 8.032993,	 3.368071,	 0.005408 
4.935000,	 0.004975,	 0.991364,	 0.018214,	 0.000003,	 20.256921,	 8.032723,	 3.368053,	 0.005408 
4.965000,	 0.004975,	 0.991341,	 0.018212,	 0.000003,	 20.256705,	 8.032454,	 3.368035,	 0.005407 
4.995000,	 0.004975,	 0.991318,	 0.018211,	 0.000003,	 20.256491,	 8.032185,	 3.368018,	 0.005407 
5.025000,	 0.004975,	 0.991296,	 0.018210,	 0.000003,	 20.256277,	 8.031918,	 3.368000,	 0.005407 
5.055000,	 0.004975,	 0.991273,	 0.018209,	 0.000003,	 20.256064,	 8.031651,	 3.367982,	 0.005407 
5.085000,	 0.004975,	 0.991251,	 0.018208,	 0.000003,	 20.255852,	 8.031385,	 3.367964,	 0.005406 
5.115000,	 0.004975,	 0.991228,	 0.018207,	 0.000003,	 20.255640,	 8.031121,	 3.367947,	 0.005406 
5.145000,	 0.004975,	 0.991206,	 0.018205,	 0.000003,	 20.255429,	 8.030857,	 3.367929,	 0.005406 
5.175000,	 0.004975,	 0.991184,	 0.018204,	 0.000003,	 20.255219,	 8.030594,	 3.367912,	 0.005405 
5.205000,	 0.004975,	 0.991162,	 0.018203,	 0.000003,	 20.255010,	 8.030332,	 3.367894,	 0.005405 
5.235000,	 0.004975,	 0.991140,	 0.018202,	 0.000003,	 20.254802,	 8.030071,	 3.367877,	 0.005404 
5.265000,	 0.004975,	 0.991118,	 0.018200,	 0.000003,	 20.254594,	 8.029811,	 3.367860,	 0.005404 
5.295000,	 0.004975,	 0.991096,	 0.018199,	 0.000003,	 20.254387,	 8.029553,	 3.367843,	 0.005404 
5.325000,	 0.004975,	 0.991074,	 0.018198,	 0.000003,	 20.254181,	 8.029295,	 3.367826,	 0.005403 
5.355000,	 0.004975,	 0.991053,	 0.018196,	 0.000003,	 20.253976,	 8.029038,	 3.367808,	 0.005403 
5.385000,	 0.004975,	 0.991031,	 0.018195,	 0.000003,	 20.253772,	 8.028783,	 3.367791,	 0.005403 
5.415000,	 0.004975,	 0.991010,	 0.018193,	 0.000003,	 20.253568,	 8.028529,	 3.367775,	 0.005402 
5.445000,	 0.004975,	 0.990989,	 0.018192,	 0.000003,	 20.253366,	 8.028276,	 3.367758,	 0.005402 
5.475000,	 0.004975,	 0.990967,	 0.018190,	 0.000003,	 20.253164,	 8.028024,	 3.367741,	 0.005401 
5.505000,	 0.004975,	 0.990946,	 0.018189,	 0.000003,	 20.252963,	 8.027773,	 3.367724,	 0.005401 
5.535000,	 0.004975,	 0.990925,	 0.018187,	 0.000003,	 20.252763,	 8.027523,	 3.367708,	 0.005400 
5.565000,	 0.004975,	 0.990904,	 0.018185,	 0.000003,	 20.252565,	 8.027274,	 3.367691,	 0.005400 
5.595000,	 0.004975,	 0.990883,	 0.018184,	 0.000003,	 20.252367,	 8.027027,	 3.367675,	 0.005399 
5.625000,	 0.004975,	 0.990862,	 0.018182,	 0.000003,	 20.252170,	 8.026780,	 3.367658,	 0.005399 
5.655000,	 0.004975,	 0.990842,	 0.018180,	 0.000003,	 20.251975,	 8.026534,	 3.367642,	 0.005398 
5.685000,	 0.004975,	 0.990821,	 0.018178,	 0.000003,	 20.251782,	 8.026290,	 3.367626,	 0.005398 
5.715000,	 0.004975,	 0.990800,	 0.018176,	 0.000003,	 20.251590,	 8.026046,	 3.367610,	 0.005397 
5.745000,	 0.004975,	 0.990779,	 0.018173,	 0.000003,	 20.251401,	 8.025804,	 3.367594,	 0.005397 
5.775000,	 0.004975,	 0.990759,	 0.018171,	 0.000004,	 20.251216,	 8.025562,	 3.367579,	 0.005396 
5.805000,	 0.004975,	 0.990738,	 0.018168,	 0.000004,	 20.251034,	 8.025321,	 3.367564,	 0.005395 
5.835000,	 0.004975,	 0.990717,	 0.018165,	 0.000004,	 20.250858,	 8.025082,	 3.367549,	 0.005394 
5.865000,	 0.004975,	 0.990696,	 0.018161,	 0.000004,	 20.250688,	 8.024843,	 3.367535,	 0.005393 
5.895000,	 0.004975,	 0.990674,	 0.018156,	 0.000004,	 20.250527,	 8.024605,	 3.367522,	 0.005392 
5.925000,	 0.004975,	 0.990653,	 0.018149,	 0.000005,	 20.250378,	 8.024371,	 3.367509,	 0.005390 
5.955000,	 0.004975,	 0.990631,	 0.018139,	 0.000006,	 20.250243,	 8.024143,	 3.367498,	 0.005387 
5.985000,	 0.004975,	 0.990611,	 0.018124,	 0.000008,	 20.250133,	 8.023938,	 3.367489,	 0.005382 
0.015000,	 0.014925,	 1.066986,	 0.375614,	 0.040132,	 20.410139,	 8.680479,	 3.374866,	 0.111931 
0.045000,	 0.014925,	 1.044177,	 0.326933,	 0.028264,	 20.360881,	 8.481659,	 3.372231,	 0.097310 
0.075000,	 0.014925,	 1.031697,	 0.281562,	 0.018086,	 20.335631,	 8.375662,	 3.371300,	 0.083689 
0.105000,	 0.014925,	 1.024076,	 0.245743,	 0.012041,	 20.321739,	 8.312003,	 3.370938,	 0.072988 
0.135000,	 0.014925,	 1.018971,	 0.218259,	 0.008506,	 20.313692,	 8.269903,	 3.370802,	 0.064799 
0.165000,	 0.014925,	 1.015309,	 0.196930,	 0.006335,	 20.308905,	 8.240043,	 3.370774,	 0.058453 
0.195000,	 0.014925,	 1.012542,	 0.180015,	 0.004920,	 20.306057,	 8.217725,	 3.370803,	 0.053424 
0.225000,	 0.014925,	 1.010365,	 0.166299,	 0.003946,	 20.304434,	 8.200368,	 3.370866,	 0.049348 
0.255000,	 0.014925,	 1.008599,	 0.154951,	 0.003243,	 20.303628,	 8.186444,	 3.370950,	 0.045977 
0.285000,	 0.014925,	 1.007129,	 0.145401,	 0.002718,	 20.303396,	 8.174998,	 3.371050,	 0.043140 
0.315000,	 0.014925,	 1.005881,	 0.137247,	 0.002314,	 20.303582,	 8.165401,	 3.371162,	 0.040718 
0.345000,	 0.014925,	 1.004802,	 0.130198,	 0.001995,	 20.304086,	 8.157224,	 3.371282,	 0.038624 
0.375000,	 0.014925,	 1.003856,	 0.124042,	 0.001739,	 20.304834,	 8.150159,	 3.371409,	 0.036796 
0.405000,	 0.014925,	 1.003016,	 0.118616,	 0.001529,	 20.305774,	 8.143984,	 3.371542,	 0.035185 
0.435000,	 0.014925,	 1.002263,	 0.113797,	 0.001355,	 20.306864,	 8.138532,	 3.371679,	 0.033753 
0.465000,	 0.014925,	 1.001582,	 0.109488,	 0.001209,	 20.308073,	 8.133676,	 3.371819,	 0.032473 
0.495000,	 0.014925,	 1.000960,	 0.105611,	 0.001085,	 20.309371,	 8.129317,	 3.371961,	 0.031322 
0.525000,	 0.014925,	 1.000390,	 0.102105,	 0.000978,	 20.310733,	 8.125375,	 3.372105,	 0.030281 
0.555000,	 0.014925,	 0.999863,	 0.098920,	 0.000886,	 20.312138,	 8.121789,	 3.372248,	 0.029335 
0.585000,	 0.014925,	 0.999375,	 0.096013,	 0.000806,	 20.313564,	 8.118507,	 3.372390,	 0.028471 
0.615000,	 0.014925,	 0.998921,	 0.093351,	 0.000736,	 20.314991,	 8.115487,	 3.372529,	 0.027681 
0.645000,	 0.014925,	 0.998497,	 0.090905,	 0.000675,	 20.316399,	 8.112696,	 3.372665,	 0.026954 
0.675000,	 0.014925,	 0.998101,	 0.088649,	 0.000620,	 20.317772,	 8.110103,	 3.372796,	 0.026284 
0.705000,	 0.014925,	 0.997729,	 0.086563,	 0.000571,	 20.319091,	 8.107686,	 3.372921,	 0.025665 
0.735000,	 0.014925,	 0.997381,	 0.084630,	 0.000528,	 20.320341,	 8.105423,	 3.373038,	 0.025091 
0.765000,	 0.014925,	 0.997055,	 0.082834,	 0.000489,	 20.321505,	 8.103297,	 3.373147,	 0.024557 
0.795000,	 0.014925,	 0.996750,	 0.081161,	 0.000454,	 20.322569,	 8.101294,	 3.373247,	 0.024061 
0.825000,	 0.014925,	 0.996464,	 0.079600,	 0.000422,	 20.323521,	 8.099400,	 3.373336,	 0.023597 
0.855000,	 0.014925,	 0.996197,	 0.078140,	 0.000394,	 20.324348,	 8.097604,	 3.373414,	 0.023164 
0.885000,	 0.014925,	 0.995948,	 0.076773,	 0.000368,	 20.325042,	 8.095897,	 3.373481,	 0.022758 
0.915000,	 0.014925,	 0.995716,	 0.075491,	 0.000344,	 20.325594,	 8.094271,	 3.373535,	 0.022378 
0.945000,	 0.014925,	 0.995501,	 0.074286,	 0.000323,	 20.325999,	 8.092718,	 3.373576,	 0.022020 
0.975000,	 0.014925,	 0.995301,	 0.073152,	 0.000303,	 20.326251,	 8.091233,	 3.373604,	 0.021684 
1.005000,	 0.014925,	 0.995118,	 0.072084,	 0.000285,	 20.326348,	 8.089808,	 3.373618,	 0.021367 
1.035000,	 0.014925,	 0.994949,	 0.071077,	 0.000269,	 20.326292,	 8.088441,	 3.373620,	 0.021069 
1.065000,	 0.014925,	 0.994794,	 0.070126,	 0.000253,	 20.326081,	 8.087126,	 3.373608,	 0.020787 
1.095000,	 0.014925,	 0.994653,	 0.069226,	 0.000240,	 20.325722,	 8.085860,	 3.373583,	 0.020520 
1.125000,	 0.014925,	 0.994524,	 0.068375,	 0.000227,	 20.325217,	 8.084640,	 3.373546,	 0.020268 
1.155000,	 0.014925,	 0.994408,	 0.067570,	 0.000215,	 20.324573,	 8.083463,	 3.373497,	 0.020030 
1.185000,	 0.014925,	 0.994304,	 0.066806,	 0.000204,	 20.323798,	 8.082326,	 3.373437,	 0.019804 
1.215000,	 0.014925,	 0.994210,	 0.066082,	 0.000193,	 20.322901,	 8.081227,	 3.373367,	 0.019589 
1.245000,	 0.014925,	 0.994127,	 0.065394,	 0.000184,	 20.321891,	 8.080165,	 3.373286,	 0.019386 
1.275000,	 0.014925,	 0.994053,	 0.064742,	 0.000175,	 20.320779,	 8.079137,	 3.373198,	 0.019193 
1.305000,	 0.014925,	 0.993987,	 0.064122,	 0.000167,	 20.319575,	 8.078142,	 3.373101,	 0.019010 
1.335000,	 0.014925,	 0.993930,	 0.063533,	 0.000159,	 20.318291,	 8.077179,	 3.372998,	 0.018836 
1.365000,	 0.014925,	 0.993879,	 0.062973,	 0.000151,	 20.316937,	 8.076246,	 3.372888,	 0.018670 
1.395000,	 0.014925,	 0.993836,	 0.062441,	 0.000144,	 20.315525,	 8.075343,	 3.372774,	 0.018513 
1.425000,	 0.014925,	 0.993798,	 0.061935,	 0.000138,	 20.314065,	 8.074469,	 3.372655,	 0.018364 
1.455000,	 0.014925,	 0.993766,	 0.061454,	 0.000132,	 20.312569,	 8.073622,	 3.372533,	 0.018222 
1.485000,	 0.014925,	 0.993738,	 0.060997,	 0.000126,	 20.311046,	 8.072803,	 3.372409,	 0.018087 
1.515000,	 0.014925,	 0.993714,	 0.060562,	 0.000120,	 20.309507,	 8.072009,	 3.372284,	 0.017959 
1.545000,	 0.014925,	 0.993694,	 0.060149,	 0.000115,	 20.307959,	 8.071242,	 3.372157,	 0.017837 
1.575000,	 0.014925,	 0.993677,	 0.059757,	 0.000110,	 20.306413,	 8.070499,	 3.372031,	 0.017721 
1.605000,	 0.014925,	 0.993663,	 0.059384,	 0.000105,	 20.304875,	 8.069781,	 3.371905,	 0.017612 
1.635000,	 0.014925,	 0.993651,	 0.059031,	 0.000100,	 20.303353,	 8.069086,	 3.371780,	 0.017507 
1.665000,	 0.014925,	 0.993641,	 0.058696,	 0.000096,	 20.301854,	 8.068415,	 3.371657,	 0.017409 
1.695000,	 0.014925,	 0.993632,	 0.058378,	 0.000091,	 20.300382,	 8.067767,	 3.371537,	 0.017315 
1.725000,	 0.014925,	 0.993625,	 0.058078,	 0.000087,	 20.298943,	 8.067142,	 3.371419,	 0.017227 
1.755000,	 0.014925,	 0.993618,	 0.057794,	 0.000083,	 20.297541,	 8.066538,	 3.371304,	 0.017143 
1.785000,	 0.014925,	 0.993612,	 0.057525,	 0.000079,	 20.296180,	 8.065955,	 3.371192,	 0.017064 
1.815000,	 0.014925,	 0.993607,	 0.057272,	 0.000076,	 20.294863,	 8.065393,	 3.371084,	 0.016989 
1.845000,	 0.014925,	 0.993601,	 0.057033,	 0.000072,	 20.293593,	 8.064851,	 3.370979,	 0.016919 
1.875000,	 0.014925,	 0.993596,	 0.056809,	 0.000069,	 20.292371,	 8.064328,	 3.370879,	 0.016853 
1.905000,	 0.014925,	 0.993591,	 0.056598,	 0.000065,	 20.291199,	 8.063825,	 3.370782,	 0.016791 
1.935000,	 0.014925,	 0.993586,	 0.056401,	 0.000062,	 20.290077,	 8.063339,	 3.370690,	 0.016733 
1.965000,	 0.014925,	 0.993580,	 0.056216,	 0.000059,	 20.289007,	 8.062872,	 3.370602,	 0.016678 
1.995000,	 0.014925,	 0.993574,	 0.056043,	 0.000056,	 20.287988,	 8.062421,	 3.370518,	 0.016628 
2.025000,	 0.014925,	 0.993567,	 0.055883,	 0.000053,	 20.287020,	 8.061986,	 3.370439,	 0.016580 
2.055000,	 0.014925,	 0.993560,	 0.055734,	 0.000050,	 20.286102,	 8.061566,	 3.370363,	 0.016536 
2.085000,	 0.014925,	 0.993552,	 0.055596,	 0.000048,	 20.285234,	 8.061161,	 3.370292,	 0.016496 
2.115000,	 0.014925,	 0.993544,	 0.055468,	 0.000045,	 20.284413,	 8.060770,	 3.370224,	 0.016458 
2.145000,	 0.014925,	 0.993535,	 0.055351,	 0.000043,	 20.283639,	 8.060391,	 3.370160,	 0.016424 
2.175000,	 0.014925,	 0.993525,	 0.055243,	 0.000040,	 20.282910,	 8.060025,	 3.370100,	 0.016392 
2.205000,	 0.014925,	 0.993515,	 0.055145,	 0.000038,	 20.282223,	 8.059670,	 3.370044,	 0.016363 
2.235000,	 0.014925,	 0.993503,	 0.055055,	 0.000036,	 20.281578,	 8.059325,	 3.369990,	 0.016337 
2.265000,	 0.014925,	 0.993492,	 0.054974,	 0.000034,	 20.280972,	 8.058989,	 3.369940,	 0.016313 
2.295000,	 0.014925,	 0.993479,	 0.054902,	 0.000032,	 20.280402,	 8.058663,	 3.369893,	 0.016292 
2.325000,	 0.014925,	 0.993466,	 0.054836,	 0.000031,	 20.279867,	 8.058344,	 3.369849,	 0.016273 
2.355000,	 0.014925,	 0.993452,	 0.054778,	 0.000029,	 20.279364,	 8.058031,	 3.369808,	 0.016256 
2.385000,	 0.014925,	 0.993437,	 0.054727,	 0.000027,	 20.278890,	 8.057725,	 3.369769,	 0.016241 
2.415000,	 0.014925,	 0.993422,	 0.054683,	 0.000026,	 20.278445,	 8.057424,	 3.369732,	 0.016228 
2.445000,	 0.014925,	 0.993406,	 0.054644,	 0.000025,	 20.278024,	 8.057127,	 3.369697,	 0.016216 
2.475000,	 0.014925,	 0.993389,	 0.054611,	 0.000023,	 20.277626,	 8.056834,	 3.369664,	 0.016207 
2.505000,	 0.014925,	 0.993371,	 0.054583,	 0.000022,	 20.277250,	 8.056544,	 3.369633,	 0.016198 
2.535000,	 0.014925,	 0.993353,	 0.054560,	 0.000021,	 20.276892,	 8.056256,	 3.369603,	 0.016192 
2.565000,	 0.014925,	 0.993335,	 0.054541,	 0.000020,	 20.276550,	 8.055969,	 3.369575,	 0.016186 
2.595000,	 0.014925,	 0.993315,	 0.054526,	 0.000020,	 20.276224,	 8.055684,	 3.369548,	 0.016182 
2.625000,	 0.014925,	 0.993296,	 0.054515,	 0.000019,	 20.275910,	 8.055398,	 3.369522,	 0.016179 
2.655000,	 0.014925,	 0.993275,	 0.054507,	 0.000018,	 20.275608,	 8.055112,	 3.369497,	 0.016177 
2.685000,	 0.014925,	 0.993254,	 0.054502,	 0.000018,	 20.275315,	 8.054826,	 3.369472,	 0.016175 
2.715000,	 0.014925,	 0.993233,	 0.054500,	 0.000017,	 20.275031,	 8.054538,	 3.369449,	 0.016175 
2.745000,	 0.014925,	 0.993211,	 0.054500,	 0.000017,	 20.274754,	 8.054249,	 3.369426,	 0.016175 
2.775000,	 0.014925,	 0.993188,	 0.054502,	 0.000016,	 20.274482,	 8.053959,	 3.369403,	 0.016175 
2.805000,	 0.014925,	 0.993165,	 0.054505,	 0.000016,	 20.274216,	 8.053666,	 3.369381,	 0.016177 
2.835000,	 0.014925,	 0.993142,	 0.054510,	 0.000016,	 20.273953,	 8.053371,	 3.369359,	 0.016178 
2.865000,	 0.014925,	 0.993118,	 0.054517,	 0.000015,	 20.273692,	 8.053074,	 3.369338,	 0.016180 
2.895000,	 0.014925,	 0.993093,	 0.054524,	 0.000015,	 20.273435,	 8.052775,	 3.369316,	 0.016182 
2.925000,	 0.014925,	 0.993069,	 0.054531,	 0.000015,	 20.273178,	 8.052473,	 3.369295,	 0.016185 
2.955000,	 0.014925,	 0.993044,	 0.054540,	 0.000015,	 20.272923,	 8.052169,	 3.369274,	 0.016187 
2.985000,	 0.014925,	 0.993019,	 0.054548,	 0.000015,	 20.272669,	 8.051863,	 3.369252,	 0.016190 
3.015000,	 0.014925,	 0.992993,	 0.054557,	 0.000015,	 20.272415,	 8.051555,	 3.369231,	 0.016193 