TITLE = "Final State"
VARIABLES = "X", "Y", "rho", "u", "v", "e", "p", "c", "M"
ZONE I=100, J=100, DATAPACKING=POINT
0.015000,	 0.000037,	 1.001083,	 0.979322,	 -0.003497,	 29.061068,	 11.444989,	 4.000707,	 0.244789 
0.045000,	 0.000037,	 1.001255,	 0.974477,	 -0.004008,	 29.057772,	 11.447537,	 4.000807,	 0.243572 
0.075000,	 0.000037,	 1.001327,	 0.970751,	 -0.004262,	 29.054868,	 11.448641,	 4.000858,	 0.242638 
0.105000,	 0.000037,	 1.001373,	 0.967427,	 -0.004463,	 29.052221,	 11.449395,	 4.000898,	 0.241805 
0.135000,	 0.000037,	 1.001411,	 0.964209,	 -0.004661,	 29.049683,	 11.450062,	 4.000937,	 0.240999 
0.165000,	 0.000037,	 1.001449,	 0.960922,	 -0.004878,	 29.047144,	 11.450743,	 4.000981,	 0.240175 
0.195000,	 0.000037,	 1.001489,	 0.957431,	 -0.005127,	 29.044514,	 11.451491,	 4.001031,	 0.239299 
0.225000,	 0.000037,	 1.001534,	 0.953611,	 -0.005419,	 29.041710,	 11.452339,	 4.001090,	 0.238342 
0.255000,	 0.000037,	 1.001584,	 0.949331,	 -0.005766,	 29.038640,	 11.453317,	 4.001161,	 0.237268 
0.285000,	 0.000037,	 1.001641,	 0.944430,	 -0.006181,	 29.035204,	 11.454449,	 4.001245,	 0.236039 
0.315000,	 0.000037,	 1.001705,	 0.938710,	 -0.006683,	 29.031272,	 11.455765,	 4.001346,	 0.234604 
0.345000,	 0.000037,	 1.001777,	 0.931904,	 -0.007295,	 29.026685,	 11.457293,	 4.001470,	 0.232898 
0.375000,	 0.000037,	 1.001854,	 0.923647,	 -0.008054,	 29.021231,	 11.459065,	 4.001624,	 0.230827 
0.405000,	 0.000037,	 1.001936,	 0.913422,	 -0.009015,	 29.014636,	 11.461116,	 4.001819,	 0.228263 
0.435000,	 0.000037,	 1.002014,	 0.900470,	 -0.010270,	 29.006547,	 11.463471,	 4.002074,	 0.225016 
0.465000,	 0.000037,	 1.002072,	 0.883645,	 -0.011988,	 28.996550,	 11.466134,	 4.002424,	 0.220798 
0.495000,	 0.000037,	 1.002069,	 0.861118,	 -0.014504,	 28.984240,	 11.469024,	 4.002935,	 0.215152 
0.525000,	 0.000037,	 1.001900,	 0.829749,	 -0.018536,	 28.969493,	 11.471790,	 4.003754,	 0.207295 
0.555000,	 0.000037,	 1.001289,	 0.783470,	 -0.025690,	 28.953049,	 11.473096,	 4.005203,	 0.195718 
0.585000,	 0.000037,	 0.999382,	 0.707942,	 -0.039478,	 28.937008,	 11.467166,	 4.007987,	 0.176907 
0.615000,	 0.000037,	 0.992541,	 0.554325,	 -0.065027,	 28.915760,	 11.418196,	 4.013179,	 0.139073 
0.645000,	 0.000037,	 1.000786,	 0.048205,	 0.000320,	 29.011301,	 11.613171,	 4.030593,	 0.011960 
0.675000,	 0.000037,	 0.992636,	 0.033545,	 0.000050,	 28.966801,	 11.501177,	 4.027542,	 0.008329 
0.705000,	 0.000037,	 0.990642,	 0.028009,	 0.000028,	 28.958765,	 11.474949,	 4.026995,	 0.006955 
0.735000,	 0.000037,	 0.989616,	 0.024901,	 0.000021,	 28.955535,	 11.461819,	 4.026776,	 0.006184 
0.765000,	 0.000037,	 0.988953,	 0.022819,	 0.000017,	 28.953819,	 11.453483,	 4.026660,	 0.005667 
0.795000,	 0.000037,	 0.988476,	 0.021287,	 0.000015,	 28.952773,	 11.447554,	 4.026590,	 0.005287 
0.825000,	 0.000037,	 0.988109,	 0.020094,	 0.000013,	 28.952081,	 11.443045,	 4.026543,	 0.004990 
0.855000,	 0.000037,	 0.987815,	 0.019126,	 0.000012,	 28.951602,	 11.439462,	 4.026512,	 0.004750 
0.885000,	 0.000037,	 0.987573,	 0.018319,	 0.000011,	 28.951264,	 11.436526,	 4.026489,	 0.004550 
0.915000,	 0.000037,	 0.987368,	 0.017631,	 0.000010,	 28.951025,	 11.434065,	 4.026473,	 0.004379 
0.945000,	 0.000037,	 0.987192,	 0.017034,	 0.000009,	 28.950862,	 11.431967,	 4.026463,	 0.004230 
0.975000,	 0.000037,	 0.987039,	 0.016509,	 0.000009,	 28.950760,	 11.430155,	 4.026456,	 0.004100 
1.005000,	 0.000037,	 0.986904,	 0.016043,	 0.000008,	 28.950710,	 11.428573,	 4.026453,	 0.003984 
1.035000,	 0.000037,	 0.986783,	 0.015625,	 0.000008,	 28.950705,	 11.427181,	 4.026453,	 0.003880 
1.065000,	 0.000037,	 0.986675,	 0.015246,	 0.000007,	 28.950741,	 11.425948,	 4.026456,	 0.003786 
1.095000,	 0.000037,	 0.986578,	 0.014902,	 0.000007,	 28.950814,	 11.424850,	 4.026462,	 0.003701 
1.125000,	 0.000037,	 0.986489,	 0.014586,	 0.000007,	 28.950921,	 11.423869,	 4.026469,	 0.003623 
1.155000,	 0.000037,	 0.986409,	 0.014296,	 0.000006,	 28.951060,	 11.422989,	 4.026479,	 0.003550 
1.185000,	 0.000037,	 0.986334,	 0.014027,	 0.000006,	 28.951228,	 11.422198,	 4.026491,	 0.003484 
1.215000,	 0.000037,	 0.986266,	 0.013778,	 0.000006,	 28.951424,	 11.421486,	 4.026505,	 0.003422 
1.245000,	 0.000037,	 0.986203,	 0.013546,	 0.000006,	 28.951643,	 11.420844,	 4.026521,	 0.003364 
1.275000,	 0.000037,	 0.986145,	 0.013330,	 0.000006,	 28.951884,	 11.420264,	 4.026538,	 0.003310 
1.305000,	 0.000037,	 0.986091,	 0.013127,	 0.000005,	 28.952143,	 11.419741,	 4.026556,	 0.003260 
1.335000,	 0.000037,	 0.986041,	 0.012937,	 0.000005,	 28.952415,	 11.419269,	 4.026575,	 0.003213 
1.365000,	 0.000037,	 0.985994,	 0.012758,	 0.000005,	 28.952698,	 11.418842,	 4.026595,	 0.003169 
1.395000,	 0.000037,	 0.985951,	 0.012590,	 0.000005,	 28.952987,	 11.418458,	 4.026615,	 0.003127 
1.425000,	 0.000037,	 0.985911,	 0.012432,	 0.000005,	 28.953277,	 11.418112,	 4.026635,	 0.003087 
1.455000,	 0.000037,	 0.985874,	 0.012282,	 0.000005,	 28.953563,	 11.417800,	 4.026655,	 0.003050 
1.485000,	 0.000037,	 0.985841,	 0.012141,	 0.000005,	 28.953839,	 11.417520,	 4.026675,	 0.003015 
1.515000,	 0.000037,	 0.985810,	 0.012007,	 0.000005,	 28.954101,	 11.417270,	 4.026693,	 0.002982 
1.545000,	 0.000037,	 0.985782,	 0.011881,	 0.000004,	 28.954344,	 11.417046,	 4.026710,	 0.002950 
1.575000,	 0.000037,	 0.985758,	 0.011761,	 0.000004,	 28.954562,	 11.416846,	 4.026725,	 0.002921 
1.605000,	 0.000037,	 0.985736,	 0.011647,	 0.000004,	 28.954749,	 11.416669,	 4.026738,	 0.002892 
1.635000,	 0.000037,	 0.985717,	 0.011539,	 0.000004,	 28.954901,	 11.416512,	 4.026749,	 0.002866 
1.665000,	 0.000037,	 0.985701,	 0.011437,	 0.000004,	 28.955014,	 11.416373,	 4.026757,	 0.002840 
1.695000,	 0.000037,	 0.985689,	 0.011341,	 0.000004,	 28.955083,	 11.416252,	 4.026762,	 0.002816 
1.725000,	 0.000037,	 0.985679,	 0.011249,	 0.000004,	 28.955104,	 11.416146,	 4.026763,	 0.002794 
1.755000,	 0.000037,	 0.985672,	 0.011162,	 0.000004,	 28.955075,	 11.416055,	 4.026761,	 0.002772 
1.785000,	 0.000037,	 0.985668,	 0.011080,	 0.000004,	 28.954993,	 11.415976,	 4.026756,	 0.002752 
1.815000,	 0.000037,	 0.985666,	 0.011002,	 0.000004,	 28.954856,	 11.415909,	 4.026746,	 0.002732 
1.845000,	 0.000037,	 0.985668,	 0.010928,	 0.000004,	 28.954664,	 11.415852,	 4.026733,	 0.002714 
1.875000,	 0.000037,	 0.985673,	 0.010858,	 0.000004,	 28.954414,	 11.415805,	 4.026716,	 0.002696 
1.905000,	 0.000037,	 0.985680,	 0.010792,	 0.000004,	 28.954109,	 11.415766,	 4.026694,	 0.002680 
1.935000,	 0.000037,	 0.985689,	 0.010729,	 0.000004,	 28.953748,	 11.415734,	 4.026669,	 0.002665 
1.965000,	 0.000037,	 0.985701,	 0.010670,	 0.000004,	 28.953334,	 11.415709,	 4.026641,	 0.002650 
1.995000,	 0.000037,	 0.985715,	 0.010614,	 0.000004,	 28.952869,	 11.415689,	 4.026608,	 0.002636 
2.025000,	 0.000037,	 0.985731,	 0.010562,	 0.000004,	 28.952355,	 11.415674,	 4.026573,	 0.002623 
2.055000,	 0.000037,	 0.985749,	 0.010513,	 0.000003,	 28.951795,	 11.415662,	 4.026534,	 0.002611 
2.085000,	 0.000037,	 0.985769,	 0.010466,	 0.000003,	 28.951194,	 11.415653,	 4.026492,	 0.002599 
2.115000,	 0.000037,	 0.985790,	 0.010423,	 0.000003,	 28.950556,	 11.415646,	 4.026448,	 0.002589 
2.145000,	 0.000037,	 0.985812,	 0.010382,	 0.000003,	 28.949885,	 11.415640,	 4.026401,	 0.002578 
2.175000,	 0.000037,	 0.985836,	 0.010344,	 0.000003,	 28.949185,	 11.415634,	 4.026352,	 0.002569 
2.205000,	 0.000037,	 0.985860,	 0.010308,	 0.000003,	 28.948462,	 11.415628,	 4.026302,	 0.002560 
2.235000,	 0.000037,	 0.985884,	 0.010275,	 0.000003,	 28.947720,	 11.415620,	 4.026251,	 0.002552 
2.265000,	 0.000037,	 0.985909,	 0.010245,	 0.000003,	 28.946963,	 11.415611,	 4.026198,	 0.002545 
2.295000,	 0.000037,	 0.985934,	 0.010216,	 0.000003,	 28.946196,	 11.415598,	 4.026145,	 0.002537 
2.325000,	 0.000037,	 0.985959,	 0.010190,	 0.000003,	 28.945425,	 11.415582,	 4.026091,	 0.002531 
2.355000,	 0.000037,	 0.985984,	 0.010166,	 0.000003,	 28.944652,	 11.415561,	 4.026037,	 0.002525 
2.385000,	 0.000037,	 0.986008,	 0.010144,	 0.000003,	 28.943883,	 11.415534,	 4.025984,	 0.002520 
2.415000,	 0.000037,	 0.986031,	 0.010124,	 0.000003,	 28.943120,	 11.415501,	 4.025931,	 0.002515 
2.445000,	 0.000037,	 0.986053,	 0.010106,	 0.000003,	 28.942368,	 11.415462,	 4.025878,	 0.002510 
2.475000,	 0.000037,	 0.986074,	 0.010089,	 0.000003,	 28.941628,	 11.415414,	 4.025827,	 0.002506 
2.505000,	 0.000037,	 0.986094,	 0.010074,	 0.000003,	 28.940904,	 11.415357,	 4.025777,	 0.002502 
2.535000,	 0.000037,	 0.986112,	 0.010061,	 0.000003,	 28.940198,	 11.415290,	 4.025728,	 0.002499 
2.565000,	 0.000037,	 0.986129,	 0.010050,	 0.000003,	 28.939511,	 11.415213,	 4.025680,	 0.002496 
2.595000,	 0.000037,	 0.986144,	 0.010040,	 0.000003,	 28.938845,	 11.415124,	 4.025633,	 0.002494 
2.625000,	 0.000037,	 0.986157,	 0.010031,	 0.000003,	 28.938201,	 11.415022,	 4.025589,	 0.002492 
2.655000,	 0.000037,	 0.986168,	 0.010024,	 0.000003,	 28.937579,	 11.414907,	 4.025545,	 0.002490 
2.685000,	 0.000037,	 0.986177,	 0.010018,	 0.000003,	 28.936980,	 11.414777,	 4.025504,	 0.002489 
2.715000,	 0.000037,	 0.986184,	 0.010013,	 0.000003,	 28.936404,	 11.414631,	 4.025464,	 0.002487 
2.745000,	 0.000037,	 0.986189,	 0.010009,	 0.000003,	 28.935851,	 11.414469,	 4.025425,	 0.002487 
2.775000,	 0.000037,	 0.986192,	 0.010006,	 0.000003,	 28.935320,	 11.414289,	 4.025388,	 0.002486 
2.805000,	 0.000037,	 0.986192,	 0.010005,	 0.000003,	 28.934812,	 11.414089,	 4.025353,	 0.002485 
2.835000,	 0.000037,	 0.986189,	 0.010003,	 0.000003,	 28.934328,	 11.413869,	 4.025319,	 0.002485 
2.865000,	 0.000037,	 0.986184,	 0.010003,	 0.000003,	 28.933870,	 11.413626,	 4.025287,	 0.002485 
2.895000,	 0.000037,	 0.986175,	 0.010002,	 0.000003,	 28.933442,	 11.413360,	 4.025258,	 0.002485 
2.925000,	 0.000037,	 0.986163,	 0.010002,	 0.000003,	 28.933052,	 11.413066,	 4.025231,	 0.002485 
2.955000,	 0.000037,	 0.986147,	 0.010001,	 0.000003,	 28.932713,	 11.412743,	 4.025207,	 0.002485 
2.985000,	 0.000037,	 0.986127,	 0.009998,	 0.000003,	 28.932450,	 11.412405,	 4.025189,	 0.002484 
0.015000,	 0.000186,	 1.001088,	 0.980354,	 -0.003473,	 29.062114,	 11.445060,	 4.000709,	 0.245047 
0.045000,	 0.000186,	 1.001257,	 0.975681,	 -0.003994,	 29.058958,	 11.447560,	 4.000808,	 0.243873 
0.075000,	 0.000186,	 1.001327,	 0.972023,	 -0.004252,	 29.056110,	 11.448652,	 4.000858,	 0.242956 
0.105000,	 0.000186,	 1.001373,	 0.968741,	 -0.004454,	 29.053496,	 11.449401,	 4.000898,	 0.242133 
0.135000,	 0.000186,	 1.001411,	 0.965557,	 -0.004652,	 29.050986,	 11.450066,	 4.000938,	 0.241335 
0.165000,	 0.000186,	 1.001449,	 0.962301,	 -0.004869,	 29.048473,	 11.450749,	 4.000981,	 0.240519 
0.195000,	 0.000186,	 1.001490,	 0.958843,	 -0.005117,	 29.045872,	 11.451499,	 4.001032,	 0.239652 
0.225000,	 0.000186,	 1.001535,	 0.955060,	 -0.005407,	 29.043100,	 11.452353,	 4.001091,	 0.238704 
0.255000,	 0.000186,	 1.001585,	 0.950820,	 -0.005752,	 29.040066,	 11.453337,	 4.001161,	 0.237640 
0.285000,	 0.000186,	 1.001643,	 0.945965,	 -0.006164,	 29.036669,	 11.454479,	 4.001246,	 0.236423 
0.315000,	 0.000186,	 1.001708,	 0.940295,	 -0.006661,	 29.032782,	 11.455807,	 4.001348,	 0.235000 
0.345000,	 0.000186,	 1.001781,	 0.933543,	 -0.007267,	 29.028243,	 11.457353,	 4.001472,	 0.233307 
0.375000,	 0.000186,	 1.001860,	 0.925342,	 -0.008018,	 29.022839,	 11.459150,	 4.001627,	 0.231250 
0.405000,	 0.000186,	 1.001944,	 0.915171,	 -0.008968,	 29.016292,	 11.461235,	 4.001823,	 0.228699 
0.435000,	 0.000186,	 1.002026,	 0.902264,	 -0.010207,	 29.008245,	 11.463640,	 4.002080,	 0.225463 
0.465000,	 0.000186,	 1.002089,	 0.885458,	 -0.011902,	 28.998268,	 11.466378,	 4.002432,	 0.221250 
0.495000,	 0.000186,	 1.002094,	 0.862886,	 -0.014382,	 28.985933,	 11.469384,	 4.002947,	 0.215593 
0.525000,	 0.000186,	 1.001940,	 0.831332,	 -0.018355,	 28.971062,	 11.472345,	 4.003772,	 0.207688 
0.555000,	 0.000186,	 1.001356,	 0.784551,	 -0.025399,	 28.954305,	 11.474022,	 4.005232,	 0.195984 
0.585000,	 0.000186,	 0.999514,	 0.707848,	 -0.038927,	 28.937667,	 11.468981,	 4.008039,	 0.176874 
0.615000,	 0.000186,	 0.992951,	 0.552878,	 -0.063400,	 28.916372,	 11.423518,	 4.013285,	 0.138665 
0.645000,	 0.000186,	 1.000970,	 0.140889,	 0.001051,	 29.012566,	 11.612312,	 4.030072,	 0.034960 
0.675000,	 0.000186,	 0.992649,	 0.100407,	 -0.000084,	 28.967100,	 11.499666,	 4.027251,	 0.024932 
0.705000,	 0.000186,	 0.990616,	 0.083962,	 -0.000163,	 28.958749,	 11.473400,	 4.026776,	 0.020851 
0.735000,	 0.000186,	 0.989579,	 0.074670,	 -0.000172,	 28.955413,	 11.460361,	 4.026595,	 0.018544 
0.765000,	 0.000186,	 0.988911,	 0.068436,	 -0.000170,	 28.953649,	 11.452110,	 4.026504,	 0.016996 
0.795000,	 0.000186,	 0.988432,	 0.063847,	 -0.000166,	 28.952575,	 11.446252,	 4.026450,	 0.015857 
0.825000,	 0.000186,	 0.988064,	 0.060270,	 -0.000162,	 28.951867,	 11.441803,	 4.026416,	 0.014969 
0.855000,	 0.000186,	 0.987770,	 0.057369,	 -0.000158,	 28.951378,	 11.438272,	 4.026394,	 0.014248 
0.885000,	 0.000186,	 0.987527,	 0.054949,	 -0.000154,	 28.951033,	 11.435380,	 4.026380,	 0.013647 
0.915000,	 0.000186,	 0.987323,	 0.052886,	 -0.000150,	 28.950789,	 11.432957,	 4.026370,	 0.013135 
0.945000,	 0.000186,	 0.987147,	 0.051096,	 -0.000147,	 28.950624,	 11.430893,	 4.026365,	 0.012690 
0.975000,	 0.000186,	 0.986994,	 0.049523,	 -0.000144,	 28.950520,	 11.429111,	 4.026364,	 0.012300 
1.005000,	 0.000186,	 0.986859,	 0.048125,	 -0.000141,	 28.950469,	 11.427556,	 4.026365,	 0.011953 
1.035000,	 0.000186,	 0.986739,	 0.046870,	 -0.000138,	 28.950464,	 11.426188,	 4.026369,	 0.011641 
1.065000,	 0.000186,	 0.986632,	 0.045735,	 -0.000136,	 28.950499,	 11.424978,	 4.026375,	 0.011359 
1.095000,	 0.000186,	 0.986534,	 0.044702,	 -0.000133,	 28.950572,	 11.423900,	 4.026383,	 0.011102 
1.125000,	 0.000186,	 0.986446,	 0.043755,	 -0.000131,	 28.950680,	 11.422938,	 4.026393,	 0.010867 
1.155000,	 0.000186,	 0.986366,	 0.042884,	 -0.000129,	 28.950819,	 11.422076,	 4.026406,	 0.010651 
1.185000,	 0.000186,	 0.986292,	 0.042079,	 -0.000127,	 28.950988,	 11.421301,	 4.026420,	 0.010451 
1.215000,	 0.000186,	 0.986224,	 0.041332,	 -0.000125,	 28.951184,	 11.420604,	 4.026436,	 0.010265 
1.245000,	 0.000186,	 0.986161,	 0.040637,	 -0.000124,	 28.951405,	 11.419976,	 4.026453,	 0.010093 
1.275000,	 0.000186,	 0.986103,	 0.039988,	 -0.000122,	 28.951646,	 11.419409,	 4.026472,	 0.009931 
1.305000,	 0.000186,	 0.986049,	 0.039380,	 -0.000121,	 28.951906,	 11.418898,	 4.026491,	 0.009780 
1.335000,	 0.000186,	 0.986000,	 0.038810,	 -0.000119,	 28.952180,	 11.418438,	 4.026512,	 0.009639 
1.365000,	 0.000186,	 0.985953,	 0.038274,	 -0.000118,	 28.952464,	 11.418022,	 4.026533,	 0.009506 
1.395000,	 0.000186,	 0.985911,	 0.037770,	 -0.000117,	 28.952753,	 11.417648,	 4.026555,	 0.009380 
1.425000,	 0.000186,	 0.985871,	 0.037295,	 -0.000115,	 28.953044,	 11.417312,	 4.026576,	 0.009262 
1.455000,	 0.000186,	 0.985835,	 0.036846,	 -0.000114,	 28.953331,	 11.417009,	 4.026597,	 0.009151 
1.485000,	 0.000186,	 0.985801,	 0.036422,	 -0.000113,	 28.953608,	 11.416738,	 4.026618,	 0.009045 
1.515000,	 0.000186,	 0.985771,	 0.036021,	 -0.000112,	 28.953872,	 11.416496,	 4.026637,	 0.008946 
1.545000,	 0.000186,	 0.985743,	 0.035641,	 -0.000111,	 28.954115,	 11.416280,	 4.026655,	 0.008851 
1.575000,	 0.000186,	 0.985719,	 0.035281,	 -0.000110,	 28.954334,	 11.416088,	 4.026671,	 0.008762 
1.605000,	 0.000186,	 0.985697,	 0.034941,	 -0.000109,	 28.954522,	 11.415917,	 4.026685,	 0.008677 
1.635000,	 0.000186,	 0.985679,	 0.034618,	 -0.000109,	 28.954675,	 11.415767,	 4.026696,	 0.008597 
1.665000,	 0.000186,	 0.985663,	 0.034312,	 -0.000108,	 28.954789,	 11.415635,	 4.026705,	 0.008521 
1.695000,	 0.000186,	 0.985650,	 0.034022,	 -0.000107,	 28.954859,	 11.415519,	 4.026710,	 0.008449 
1.725000,	 0.000186,	 0.985641,	 0.033747,	 -0.000106,	 28.954881,	 11.415419,	 4.026713,	 0.008381 
1.755000,	 0.000186,	 0.985634,	 0.033486,	 -0.000106,	 28.954853,	 11.415333,	 4.026711,	 0.008316 
1.785000,	 0.000186,	 0.985630,	 0.033239,	 -0.000105,	 28.954771,	 11.415260,	 4.026706,	 0.008255 
1.815000,	 0.000186,	 0.985629,	 0.033005,	 -0.000104,	 28.954635,	 11.415197,	 4.026697,	 0.008196 
1.845000,	 0.000186,	 0.985631,	 0.032783,	 -0.000104,	 28.954443,	 11.415145,	 4.026684,	 0.008141 
1.875000,	 0.000186,	 0.985635,	 0.032573,	 -0.000103,	 28.954195,	 11.415102,	 4.026668,	 0.008089 
1.905000,	 0.000186,	 0.985643,	 0.032375,	 -0.000103,	 28.953890,	 11.415067,	 4.026647,	 0.008040 
1.935000,	 0.000186,	 0.985652,	 0.032187,	 -0.000102,	 28.953530,	 11.415040,	 4.026622,	 0.007994 
1.965000,	 0.000186,	 0.985664,	 0.032010,	 -0.000102,	 28.953117,	 11.415018,	 4.026594,	 0.007950 
1.995000,	 0.000186,	 0.985678,	 0.031843,	 -0.000101,	 28.952652,	 11.415001,	 4.026562,	 0.007908 
2.025000,	 0.000186,	 0.985695,	 0.031686,	 -0.000101,	 28.952138,	 11.414989,	 4.026527,	 0.007869 
2.055000,	 0.000186,	 0.985713,	 0.031538,	 -0.000100,	 28.951579,	 11.414981,	 4.026488,	 0.007833 
2.085000,	 0.000186,	 0.985733,	 0.031399,	 -0.000100,	 28.950979,	 11.414974,	 4.026447,	 0.007798 
2.115000,	 0.000186,	 0.985754,	 0.031268,	 -0.000100,	 28.950341,	 11.414970,	 4.026403,	 0.007766 
2.145000,	 0.000186,	 0.985776,	 0.031146,	 -0.000099,	 28.949671,	 11.414967,	 4.026356,	 0.007736 
2.175000,	 0.000186,	 0.985800,	 0.031032,	 -0.000099,	 28.948971,	 11.414963,	 4.026308,	 0.007707 
2.205000,	 0.000186,	 0.985824,	 0.030925,	 -0.000099,	 28.948248,	 11.414959,	 4.026258,	 0.007681 
2.235000,	 0.000186,	 0.985848,	 0.030826,	 -0.000098,	 28.947506,	 11.414954,	 4.026206,	 0.007656 
2.265000,	 0.000186,	 0.985873,	 0.030734,	 -0.000098,	 28.946750,	 11.414946,	 4.026154,	 0.007634 
2.295000,	 0.000186,	 0.985898,	 0.030649,	 -0.000098,	 28.945984,	 11.414935,	 4.026101,	 0.007613 
2.325000,	 0.000186,	 0.985923,	 0.030570,	 -0.000098,	 28.945213,	 11.414920,	 4.026047,	 0.007593 
2.355000,	 0.000186,	 0.985948,	 0.030498,	 -0.000098,	 28.944441,	 11.414901,	 4.025994,	 0.007575 
2.385000,	 0.000186,	 0.985972,	 0.030431,	 -0.000097,	 28.943671,	 11.414876,	 4.025940,	 0.007559 
2.415000,	 0.000186,	 0.985995,	 0.030371,	 -0.000097,	 28.942909,	 11.414844,	 4.025888,	 0.007544 
2.445000,	 0.000186,	 0.986017,	 0.030316,	 -0.000097,	 28.942156,	 11.414805,	 4.025835,	 0.007530 
2.475000,	 0.000186,	 0.986038,	 0.030267,	 -0.000097,	 28.941417,	 11.414758,	 4.025784,	 0.007518 
2.505000,	 0.000186,	 0.986058,	 0.030223,	 -0.000097,	 28.940693,	 11.414702,	 4.025734,	 0.007507 
2.535000,	 0.000186,	 0.986076,	 0.030183,	 -0.000097,	 28.939987,	 11.414636,	 4.025685,	 0.007498 
2.565000,	 0.000186,	 0.986093,	 0.030149,	 -0.000097,	 28.939300,	 11.414560,	 4.025637,	 0.007489 
2.595000,	 0.000186,	 0.986108,	 0.030119,	 -0.000097,	 28.938634,	 11.414471,	 4.025591,	 0.007482 
2.625000,	 0.000186,	 0.986121,	 0.030093,	 -0.000096,	 28.937990,	 11.414370,	 4.025546,	 0.007476 
2.655000,	 0.000186,	 0.986133,	 0.030071,	 -0.000096,	 28.937369,	 11.414255,	 4.025503,	 0.007470 
2.685000,	 0.000186,	 0.986142,	 0.030053,	 -0.000096,	 28.936770,	 11.414126,	 4.025461,	 0.007466 
2.715000,	 0.000186,	 0.986149,	 0.030038,	 -0.000096,	 28.936193,	 11.413980,	 4.025421,	 0.007462 
2.745000,	 0.000186,	 0.986154,	 0.030027,	 -0.000096,	 28.935640,	 11.413818,	 4.025383,	 0.007459 
2.775000,	 0.000186,	 0.986156,	 0.030019,	 -0.000096,	 28.935109,	 11.413638,	 4.025346,	 0.007457 
2.805000,	 0.000186,	 0.986156,	 0.030013,	 -0.000096,	 28.934601,	 11.413438,	 4.025310,	 0.007456 
2.835000,	 0.000186,	 0.986154,	 0.030009,	 -0.000096,	 28.934117,	 11.413218,	 4.025277,	 0.007455 
2.865000,	 0.000186,	 0.986148,	 0.030008,	 -0.000096,	 28.933659,	 11.412976,	 4.025245,	 0.007455 
2.895000,	 0.000186,	 0.986140,	 0.030007,	 -0.000096,	 28.933231,	 11.412709,	 4.025215,	 0.007455 
2.925000,	 0.000186,	 0.986128,	 0.030006,	 -0.000096,	 28.932841,	 11.412415,	 4.025188,	 0.007455 
2.955000,	 0.000186,	 0.986112,	 0.030002,	 -0.000096,	 28.932502,	 11.412093,	 4.025164,	 0.007454 
2.985000,	 0.000186,	 0.986091,	 0.029993,	 -0.000096,	 28.932239,	 11.411755,	 4.025146,	 0.007451 
0.015000,	 0.000483,	 1.001093,	 0.981359,	 -0.003415,	 29.063134,	 11.445132,	 4.000712,	 0.245298 
0.045000,	 0.000483,	 1.001258,	 0.976883,	 -0.003950,	 29.060136,	 11.447569,	 4.000808,	 0.244174 
0.075000,	 0.000483,	 1.001327,	 0.973307,	 -0.004213,	 29.057356,	 11.448648,	 4.000858,	 0.243277 
0.105000,	 0.000483,	 1.001372,	 0.970073,	 -0.004418,	 29.054783,	 11.449391,	 4.000898,	 0.242466 
0.135000,	 0.000483,	 1.001411,	 0.966926,	 -0.004616,	 29.052304,	 11.450056,	 4.000937,	 0.241678 
0.165000,	 0.000483,	 1.001448,	 0.963705,	 -0.004832,	 29.049821,	 11.450739,	 4.000981,	 0.240870 
0.195000,	 0.000483,	 1.001489,	 0.960283,	 -0.005077,	 29.047250,	 11.451492,	 4.001031,	 0.240012 
0.225000,	 0.000483,	 1.001534,	 0.956539,	 -0.005364,	 29.044510,	 11.452350,	 4.001091,	 0.239073 
0.255000,	 0.000483,	 1.001586,	 0.952341,	 -0.005703,	 29.041514,	 11.453341,	 4.001161,	 0.238020 
0.285000,	 0.000483,	 1.001644,	 0.947533,	 -0.006108,	 29.038158,	 11.454492,	 4.001246,	 0.236814 
0.315000,	 0.000483,	 1.001710,	 0.941914,	 -0.006596,	 29.034317,	 11.455833,	 4.001348,	 0.235405 
0.345000,	 0.000483,	 1.001784,	 0.935218,	 -0.007190,	 29.029826,	 11.457396,	 4.001474,	 0.233725 
0.375000,	 0.000483,	 1.001865,	 0.927076,	 -0.007924,	 29.024474,	 11.459217,	 4.001629,	 0.231683 
0.405000,	 0.000483,	 1.001952,	 0.916963,	 -0.008851,	 29.017979,	 11.461337,	 4.001827,	 0.229147 
0.435000,	 0.000483,	 1.002037,	 0.904109,	 -0.010059,	 29.009977,	 11.463793,	 4.002085,	 0.225923 
0.465000,	 0.000483,	 1.002106,	 0.887333,	 -0.011707,	 29.000029,	 11.466607,	 4.002439,	 0.221717 
0.495000,	 0.000483,	 1.002119,	 0.864743,	 -0.014115,	 28.987683,	 11.469734,	 4.002957,	 0.216055 
0.525000,	 0.000483,	 1.001980,	 0.833066,	 -0.017972,	 28.972720,	 11.472899,	 4.003787,	 0.208118 
0.555000,	 0.000483,	 1.001426,	 0.785966,	 -0.024802,	 28.955725,	 11.474959,	 4.005255,	 0.196331 
0.585000,	 0.000483,	 0.999657,	 0.708809,	 -0.037841,	 28.938688,	 11.470772,	 4.008066,	 0.177097 
0.615000,	 0.000483,	 0.993363,	 0.556950,	 -0.060650,	 28.917531,	 11.427888,	 4.013220,	 0.139599 
0.645000,	 0.000483,	 1.001190,	 0.227921,	 0.003416,	 29.013932,	 11.608983,	 4.029051,	 0.056576 
0.675000,	 0.000483,	 0.992760,	 0.168387,	 0.000664,	 28.968414,	 11.497838,	 4.026707,	 0.041818 
0.705000,	 0.000483,	 0.990648,	 0.141445,	 0.000265,	 28.959414,	 11.471472,	 4.026372,	 0.035130 
0.735000,	 0.000483,	 0.989581,	 0.125927,	 0.000148,	 28.955789,	 11.458496,	 4.026264,	 0.031276 
0.765000,	 0.000483,	 0.988898,	 0.115464,	 0.000095,	 28.953867,	 11.450330,	 4.026218,	 0.028678 
0.795000,	 0.000483,	 0.988409,	 0.107746,	 0.000065,	 28.952696,	 11.444552,	 4.026197,	 0.026761 
0.825000,	 0.000483,	 0.988036,	 0.101723,	 0.000046,	 28.951921,	 11.440173,	 4.026187,	 0.025265 
0.855000,	 0.000483,	 0.987738,	 0.096836,	 0.000033,	 28.951384,	 11.436702,	 4.026183,	 0.024052 
0.885000,	 0.000483,	 0.987493,	 0.092757,	 0.000023,	 28.951003,	 11.433863,	 4.026183,	 0.023038 
0.915000,	 0.000483,	 0.987286,	 0.089278,	 0.000016,	 28.950732,	 11.431488,	 4.026187,	 0.022174 
0.945000,	 0.000483,	 0.987109,	 0.086261,	 0.000011,	 28.950544,	 11.429466,	 4.026192,	 0.021425 
0.975000,	 0.000483,	 0.986955,	 0.083608,	 0.000007,	 28.950423,	 11.427721,	 4.026199,	 0.020766 
1.005000,	 0.000483,	 0.986819,	 0.081249,	 0.000003,	 28.950357,	 11.426201,	 4.026208,	 0.020180 
1.035000,	 0.000483,	 0.986698,	 0.079132,	 0.000000,	 28.950340,	 11.424864,	 4.026219,	 0.019654 
1.065000,	 0.000483,	 0.986590,	 0.077217,	 -0.000002,	 28.950365,	 11.423683,	 4.026231,	 0.019179 
1.095000,	 0.000483,	 0.986493,	 0.075474,	 -0.000004,	 28.950429,	 11.422632,	 4.026245,	 0.018745 
1.125000,	 0.000483,	 0.986404,	 0.073877,	 -0.000006,	 28.950529,	 11.421694,	 4.026260,	 0.018349 
1.155000,	 0.000483,	 0.986324,	 0.072407,	 -0.000007,	 28.950662,	 11.420854,	 4.026277,	 0.017984 
1.185000,	 0.000483,	 0.986250,	 0.071048,	 -0.000009,	 28.950826,	 11.420100,	 4.026295,	 0.017646 
1.215000,	 0.000483,	 0.986182,	 0.069788,	 -0.000010,	 28.951017,	 11.419423,	 4.026314,	 0.017333 
1.245000,	 0.000483,	 0.986119,	 0.068614,	 -0.000011,	 28.951233,	 11.418813,	 4.026335,	 0.017041 
1.275000,	 0.000483,	 0.986061,	 0.067518,	 -0.000011,	 28.951471,	 11.418264,	 4.026357,	 0.016769 
1.305000,	 0.000483,	 0.986007,	 0.066493,	 -0.000012,	 28.951727,	 11.417769,	 4.026379,	 0.016514 
1.335000,	 0.000483,	 0.985957,	 0.065531,	 -0.000013,	 28.951998,	 11.417323,	 4.026402,	 0.016275 
1.365000,	 0.000483,	 0.985911,	 0.064627,	 -0.000014,	 28.952279,	 11.416922,	 4.026426,	 0.016051 
1.395000,	 0.000483,	 0.985868,	 0.063775,	 -0.000014,	 28.952566,	 11.416562,	 4.026450,	 0.015839 
1.425000,	 0.000483,	 0.985829,	 0.062973,	 -0.000015,	 28.952855,	 11.416238,	 4.026473,	 0.015640 
1.455000,	 0.000483,	 0.985792,	 0.062215,	 -0.000015,	 28.953140,	 11.415948,	 4.026497,	 0.015451 
1.485000,	 0.000483,	 0.985759,	 0.061500,	 -0.000015,	 28.953416,	 11.415688,	 4.026519,	 0.015274 
1.515000,	 0.000483,	 0.985728,	 0.060823,	 -0.000016,	 28.953678,	 11.415457,	 4.026540,	 0.015105 
1.545000,	 0.000483,	 0.985701,	 0.060182,	 -0.000016,	 28.953920,	 11.415251,	 4.026559,	 0.014946 
1.575000,	 0.000483,	 0.985677,	 0.059575,	 -0.000016,	 28.954137,	 11.415068,	 4.026577,	 0.014795 
1.605000,	 0.000483,	 0.985655,	 0.059000,	 -0.000017,	 28.954325,	 11.414907,	 4.026593,	 0.014653 
1.635000,	 0.000483,	 0.985637,	 0.058455,	 -0.000017,	 28.954477,	 11.414765,	 4.026605,	 0.014517 
1.665000,	 0.000483,	 0.985621,	 0.057938,	 -0.000017,	 28.954590,	 11.414642,	 4.026615,	 0.014389 
1.695000,	 0.000483,	 0.985609,	 0.057448,	 -0.000018,	 28.954659,	 11.414534,	 4.026622,	 0.014267 
1.725000,	 0.000483,	 0.985599,	 0.056984,	 -0.000018,	 28.954681,	 11.414442,	 4.026625,	 0.014152 
1.755000,	 0.000483,	 0.985592,	 0.056544,	 -0.000018,	 28.954653,	 11.414362,	 4.026625,	 0.014042 
1.785000,	 0.000483,	 0.985588,	 0.056126,	 -0.000018,	 28.954571,	 11.414296,	 4.026621,	 0.013939 
1.815000,	 0.000483,	 0.985588,	 0.055731,	 -0.000018,	 28.954435,	 11.414240,	 4.026613,	 0.013841 
1.845000,	 0.000483,	 0.985589,	 0.055357,	 -0.000018,	 28.954243,	 11.414194,	 4.026601,	 0.013748 
1.875000,	 0.000483,	 0.985594,	 0.055003,	 -0.000019,	 28.953994,	 11.414156,	 4.026585,	 0.013660 
1.905000,	 0.000483,	 0.985601,	 0.054668,	 -0.000019,	 28.953689,	 11.414127,	 4.026565,	 0.013577 
1.935000,	 0.000483,	 0.985611,	 0.054351,	 -0.000019,	 28.953329,	 11.414104,	 4.026542,	 0.013498 
1.965000,	 0.000483,	 0.985623,	 0.054052,	 -0.000019,	 28.952916,	 11.414087,	 4.026514,	 0.013424 
1.995000,	 0.000483,	 0.985637,	 0.053770,	 -0.000019,	 28.952451,	 11.414075,	 4.026483,	 0.013354 
2.025000,	 0.000483,	 0.985654,	 0.053505,	 -0.000019,	 28.951938,	 11.414067,	 4.026448,	 0.013288 
2.055000,	 0.000483,	 0.985672,	 0.053255,	 -0.000019,	 28.951379,	 11.414062,	 4.026410,	 0.013226 
2.085000,	 0.000483,	 0.985691,	 0.053020,	 -0.000020,	 28.950779,	 11.414060,	 4.026369,	 0.013168 
2.115000,	 0.000483,	 0.985713,	 0.052799,	 -0.000020,	 28.950141,	 11.414059,	 4.026326,	 0.013114 
2.145000,	 0.000483,	 0.985735,	 0.052593,	 -0.000020,	 28.949470,	 11.414059,	 4.026280,	 0.013062 
2.175000,	 0.000483,	 0.985759,	 0.052400,	 -0.000020,	 28.948771,	 11.414059,	 4.026232,	 0.013015 
2.205000,	 0.000483,	 0.985783,	 0.052220,	 -0.000020,	 28.948048,	 11.414057,	 4.026182,	 0.012970 
2.235000,	 0.000483,	 0.985808,	 0.052052,	 -0.000020,	 28.947306,	 11.414055,	 4.026131,	 0.012929 
2.265000,	 0.000483,	 0.985833,	 0.051897,	 -0.000020,	 28.946550,	 11.414049,	 4.026079,	 0.012890 
2.295000,	 0.000483,	 0.985858,	 0.051753,	 -0.000020,	 28.945784,	 11.414041,	 4.026026,	 0.012855 
2.325000,	 0.000483,	 0.985883,	 0.051620,	 -0.000020,	 28.945013,	 11.414028,	 4.025973,	 0.012822 
2.355000,	 0.000483,	 0.985907,	 0.051498,	 -0.000020,	 28.944240,	 11.414010,	 4.025920,	 0.012792 
2.385000,	 0.000483,	 0.985931,	 0.051386,	 -0.000020,	 28.943471,	 11.413987,	 4.025867,	 0.012764 
2.415000,	 0.000483,	 0.985954,	 0.051284,	 -0.000020,	 28.942708,	 11.413957,	 4.025814,	 0.012739 
2.445000,	 0.000483,	 0.985977,	 0.051191,	 -0.000021,	 28.941956,	 11.413919,	 4.025762,	 0.012716 
2.475000,	 0.000483,	 0.985998,	 0.051108,	 -0.000021,	 28.941216,	 11.413873,	 4.025711,	 0.012695 
2.505000,	 0.000483,	 0.986017,	 0.051033,	 -0.000021,	 28.940492,	 11.413819,	 4.025661,	 0.012677 
2.535000,	 0.000483,	 0.986036,	 0.050967,	 -0.000021,	 28.939786,	 11.413754,	 4.025612,	 0.012661 
2.565000,	 0.000483,	 0.986053,	 0.050908,	 -0.000021,	 28.939099,	 11.413678,	 4.025565,	 0.012646 
2.595000,	 0.000483,	 0.986068,	 0.050857,	 -0.000021,	 28.938433,	 11.413590,	 4.025518,	 0.012634 
2.625000,	 0.000483,	 0.986081,	 0.050813,	 -0.000021,	 28.937789,	 11.413490,	 4.025474,	 0.012623 
2.655000,	 0.000483,	 0.986092,	 0.050776,	 -0.000021,	 28.937167,	 11.413375,	 4.025431,	 0.012614 
2.685000,	 0.000483,	 0.986101,	 0.050746,	 -0.000021,	 28.936568,	 11.413246,	 4.025389,	 0.012606 
2.715000,	 0.000483,	 0.986108,	 0.050721,	 -0.000021,	 28.935991,	 11.413101,	 4.025349,	 0.012600 
2.745000,	 0.000483,	 0.986113,	 0.050702,	 -0.000021,	 28.935438,	 11.412939,	 4.025311,	 0.012596 
2.775000,	 0.000483,	 0.986116,	 0.050688,	 -0.000021,	 28.934907,	 11.412759,	 4.025274,	 0.012592 
2.805000,	 0.000483,	 0.986116,	 0.050678,	 -0.000021,	 28.934398,	 11.412559,	 4.025238,	 0.012590 
2.835000,	 0.000483,	 0.986113,	 0.050672,	 -0.000021,	 28.933914,	 11.412339,	 4.025205,	 0.012589 
2.865000,	 0.000483,	 0.986108,	 0.050668,	 -0.000021,	 28.933456,	 11.412097,	 4.025173,	 0.012588 