TITLE = "Final State"
VARIABLES = "X", "Y", "rho", "u", "v", "T", "p", "c", "M"
ZONE I=50, J=50, DATAPACKING=POINT
0.010000,	 0.000015,	 1.000023,	 9.999883,	 -0.000004,	 300.002705,	 86131.930187,	 347.249168,	 0.028797 
0.030000,	 0.000015,	 1.000023,	 9.999849,	 -0.000004,	 300.002749,	 86131.977132,	 347.249194,	 0.028797 
0.050000,	 0.000015,	 1.000023,	 9.999769,	 -0.000003,	 300.002748,	 86131.973101,	 347.249194,	 0.028797 
0.070000,	 0.000015,	 1.000023,	 9.999305,	 -0.000002,	 300.002753,	 86131.973903,	 347.249196,	 0.028796 
0.090000,	 0.000015,	 1.000023,	 9.997867,	 -0.000002,	 300.002764,	 86131.975825,	 347.249203,	 0.028792 
0.110000,	 0.000015,	 1.000023,	 9.994732,	 0.000020,	 300.002801,	 86131.978315,	 347.249224,	 0.028783 
0.130000,	 0.000015,	 1.000022,	 9.983261,	 0.000076,	 300.002986,	 86131.985550,	 347.249331,	 0.028750 
0.150000,	 0.000015,	 1.000020,	 9.944933,	 0.000280,	 300.003662,	 86131.998063,	 347.249722,	 0.028639 
0.170000,	 0.000015,	 1.000011,	 9.822699,	 0.001031,	 300.006427,	 86132.021451,	 347.251323,	 0.028287 
0.190000,	 0.000015,	 0.999971,	 9.430483,	 0.004063,	 300.018678,	 86132.106366,	 347.258413,	 0.027157 
0.210000,	 0.000015,	 0.999803,	 8.076297,	 0.018343,	 300.071784,	 86132.890575,	 347.289145,	 0.023255 
0.230000,	 0.000015,	 1.000142,	 2.607414,	 -0.000820,	 299.986302,	 86137.534771,	 347.239675,	 0.007509 
0.250000,	 0.000015,	 1.000048,	 1.613377,	 -0.000229,	 300.007084,	 86135.340896,	 347.251703,	 0.004646 
0.270000,	 0.000015,	 1.000033,	 1.385411,	 -0.000191,	 300.009870,	 86134.884401,	 347.253315,	 0.003990 
0.290000,	 0.000015,	 1.000031,	 1.322581,	 -0.000201,	 300.010212,	 86134.779892,	 347.253513,	 0.003809 
0.310000,	 0.000015,	 1.000030,	 1.303667,	 -0.000209,	 300.010277,	 86134.765694,	 347.253551,	 0.003754 
0.330000,	 0.000015,	 1.000030,	 1.297886,	 -0.000213,	 300.010301,	 86134.773326,	 347.253565,	 0.003738 
0.350000,	 0.000015,	 1.000030,	 1.296159,	 -0.000214,	 300.010315,	 86134.783501,	 347.253573,	 0.003733 
0.370000,	 0.000015,	 1.000030,	 1.295665,	 -0.000214,	 300.010324,	 86134.791390,	 347.253578,	 0.003731 
0.390000,	 0.000015,	 1.000030,	 1.295532,	 -0.000215,	 300.010329,	 86134.796672,	 347.253581,	 0.003731 
0.410000,	 0.000015,	 1.000030,	 1.295499,	 -0.000215,	 300.010333,	 86134.799948,	 347.253583,	 0.003731 
0.430000,	 0.000015,	 1.000030,	 1.295493,	 -0.000215,	 300.010335,	 86134.801790,	 347.253584,	 0.003731 
0.450000,	 0.000015,	 1.000030,	 1.295493,	 -0.000215,	 300.010336,	 86134.802818,	 347.253585,	 0.003731 
0.470000,	 0.000015,	 1.000030,	 1.295494,	 -0.000215,	 300.010336,	 86134.803242,	 347.253585,	 0.003731 
0.490000,	 0.000015,	 1.000030,	 1.295494,	 -0.000215,	 300.010336,	 86134.803350,	 347.253585,	 0.003731 
0.510000,	 0.000015,	 1.000030,	 1.295495,	 -0.000215,	 300.010336,	 86134.803246,	 347.253585,	 0.003731 
0.530000,	 0.000015,	 1.000030,	 1.295495,	 -0.000215,	 300.010336,	 86134.802968,	 347.253585,	 0.003731 
0.550000,	 0.000015,	 1.000030,	 1.295495,	 -0.000215,	 300.010335,	 86134.802647,	 347.253585,	 0.003731 
0.570000,	 0.000015,	 1.000030,	 1.295496,	 -0.000215,	 300.010335,	 86134.802206,	 347.253584,	 0.003731 
0.590000,	 0.000015,	 1.000030,	 1.295496,	 -0.000215,	 300.010334,	 86134.801721,	 347.253584,	 0.003731 
0.610000,	 0.000015,	 1.000030,	 1.295496,	 -0.000215,	 300.010334,	 86134.801166,	 347.253584,	 0.003731 
0.630000,	 0.000015,	 1.000030,	 1.295496,	 -0.000215,	 300.010333,	 86134.800625,	 347.253583,	 0.003731 
0.650000,	 0.000015,	 1.000030,	 1.295496,	 -0.000215,	 300.010333,	 86134.800038,	 347.253583,	 0.003731 
0.670000,	 0.000015,	 1.000030,	 1.295496,	 -0.000215,	 300.010332,	 86134.799388,	 347.253583,	 0.003731 
0.690000,	 0.000015,	 1.000030,	 1.295496,	 -0.000215,	 300.010331,	 86134.798704,	 347.253582,	 0.003731 
0.710000,	 0.000015,	 1.000030,	 1.295497,	 -0.000215,	 300.010331,	 86134.798049,	 347.253582,	 0.003731 
0.730000,	 0.000015,	 1.000030,	 1.295497,	 -0.000215,	 300.010330,	 86134.797209,	 347.253581,	 0.003731 
0.750000,	 0.000015,	 1.000030,	 1.295497,	 -0.000215,	 300.010329,	 86134.796410,	 347.253581,	 0.003731 
0.770000,	 0.000015,	 1.000030,	 1.295498,	 -0.000215,	 300.010328,	 86134.795472,	 347.253580,	 0.003731 
0.790000,	 0.000015,	 1.000030,	 1.295500,	 -0.000215,	 300.010327,	 86134.794498,	 347.253580,	 0.003731 
0.810000,	 0.000015,	 1.000030,	 1.295507,	 -0.000215,	 300.010326,	 86134.793396,	 347.253579,	 0.003731 
0.830000,	 0.000015,	 1.000030,	 1.295536,	 -0.000215,	 300.010325,	 86134.792104,	 347.253578,	 0.003731 
0.850000,	 0.000015,	 1.000030,	 1.295645,	 -0.000215,	 300.010323,	 86134.790470,	 347.253577,	 0.003731 
0.870000,	 0.000015,	 1.000030,	 1.296044,	 -0.000215,	 300.010320,	 86134.788301,	 347.253576,	 0.003732 
0.890000,	 0.000015,	 1.000030,	 1.297460,	 -0.000217,	 300.010315,	 86134.785484,	 347.253572,	 0.003736 
0.910000,	 0.000015,	 1.000030,	 1.302310,	 -0.000224,	 300.010300,	 86134.782651,	 347.253564,	 0.003750 
0.930000,	 0.000015,	 1.000031,	 1.318527,	 -0.000249,	 300.010246,	 86134.785334,	 347.253533,	 0.003797 
0.950000,	 0.000015,	 1.000032,	 1.372876,	 -0.000358,	 300.009980,	 86134.815133,	 347.253379,	 0.003954 
0.970000,	 0.000015,	 1.000039,	 1.566742,	 -0.000916,	 300.008143,	 86134.933188,	 347.252316,	 0.004512 
0.990000,	 0.000015,	 1.000100,	 2.378819,	 -0.004375,	 299.990787,	 86135.190642,	 347.242271,	 0.006851 
0.010000,	 0.000047,	 1.000023,	 9.999873,	 -0.000006,	 300.002705,	 86131.930181,	 347.249168,	 0.028797 
0.030000,	 0.000047,	 1.000023,	 9.999830,	 -0.000006,	 300.002749,	 86131.977129,	 347.249194,	 0.028797 
0.050000,	 0.000047,	 1.000023,	 9.999720,	 -0.000005,	 300.002749,	 86131.973102,	 347.249194,	 0.028797 
0.070000,	 0.000047,	 1.000023,	 9.999131,	 -0.000002,	 300.002756,	 86131.973939,	 347.249198,	 0.028795 
0.090000,	 0.000047,	 1.000023,	 9.997124,	 0.000003,	 300.002779,	 86131.976153,	 347.249211,	 0.028789 
0.110000,	 0.000047,	 1.000023,	 9.990849,	 0.000035,	 300.002863,	 86131.982674,	 347.249260,	 0.028771 
0.130000,	 0.000047,	 1.000022,	 9.970714,	 0.000132,	 300.003165,	 86131.999476,	 347.249435,	 0.028713 
0.150000,	 0.000047,	 1.000019,	 9.908554,	 0.000452,	 300.004163,	 86132.044665,	 347.250012,	 0.028534 
0.170000,	 0.000047,	 1.000010,	 9.728451,	 0.001518,	 300.007296,	 86132.170819,	 347.251825,	 0.028016 
0.190000,	 0.000047,	 0.999986,	 9.237608,	 0.005295,	 300.015966,	 86132.552390,	 347.256843,	 0.026602 
0.210000,	 0.000047,	 0.999945,	 8.000153,	 0.020626,	 300.033215,	 86134.023105,	 347.266825,	 0.023038 
0.230000,	 0.000047,	 1.000104,	 5.409096,	 0.005345,	 299.988766,	 86134.948435,	 347.241101,	 0.015577 
0.250000,	 0.000047,	 1.000063,	 4.313578,	 0.000666,	 299.999926,	 86134.646155,	 347.247560,	 0.012422 
0.270000,	 0.000047,	 1.000044,	 3.913802,	 -0.000218,	 300.005144,	 86134.465378,	 347.250580,	 0.011271 
0.290000,	 0.000047,	 1.000038,	 3.774074,	 -0.000443,	 300.006651,	 86134.399422,	 347.251452,	 0.010868 
0.310000,	 0.000047,	 1.000037,	 3.726694,	 -0.000514,	 300.007067,	 86134.388609,	 347.251693,	 0.010732 
0.330000,	 0.000047,	 1.000036,	 3.711206,	 -0.000538,	 300.007189,	 86134.395338,	 347.251763,	 0.010687 
0.350000,	 0.000047,	 1.000036,	 3.706362,	 -0.000547,	 300.007229,	 86134.404739,	 347.251787,	 0.010673 
0.370000,	 0.000047,	 1.000036,	 3.704922,	 -0.000549,	 300.007244,	 86134.412265,	 347.251796,	 0.010669 
0.390000,	 0.000047,	 1.000036,	 3.704519,	 -0.000550,	 300.007252,	 86134.417405,	 347.251800,	 0.010668 
0.410000,	 0.000047,	 1.000036,	 3.704415,	 -0.000550,	 300.007255,	 86134.420634,	 347.251802,	 0.010668 
0.430000,	 0.000047,	 1.000036,	 3.704393,	 -0.000550,	 300.007257,	 86134.422459,	 347.251803,	 0.010668 
0.450000,	 0.000047,	 1.000036,	 3.704390,	 -0.000550,	 300.007258,	 86134.423482,	 347.251804,	 0.010668 
0.470000,	 0.000047,	 1.000036,	 3.704391,	 -0.000550,	 300.007259,	 86134.423904,	 347.251804,	 0.010668 
0.490000,	 0.000047,	 1.000036,	 3.704393,	 -0.000550,	 300.007259,	 86134.424011,	 347.251804,	 0.010668 
0.510000,	 0.000047,	 1.000036,	 3.704394,	 -0.000550,	 300.007259,	 86134.423908,	 347.251804,	 0.010668 
0.530000,	 0.000047,	 1.000036,	 3.704395,	 -0.000550,	 300.007259,	 86134.423629,	 347.251804,	 0.010668 
0.550000,	 0.000047,	 1.000036,	 3.704396,	 -0.000550,	 300.007258,	 86134.423309,	 347.251804,	 0.010668 
0.570000,	 0.000047,	 1.000036,	 3.704396,	 -0.000550,	 300.007258,	 86134.422867,	 347.251803,	 0.010668 
0.590000,	 0.000047,	 1.000036,	 3.704396,	 -0.000550,	 300.007257,	 86134.422383,	 347.251803,	 0.010668 
0.610000,	 0.000047,	 1.000036,	 3.704397,	 -0.000550,	 300.007257,	 86134.421827,	 347.251803,	 0.010668 
0.630000,	 0.000047,	 1.000036,	 3.704397,	 -0.000550,	 300.007256,	 86134.421287,	 347.251803,	 0.010668 
0.650000,	 0.000047,	 1.000036,	 3.704397,	 -0.000550,	 300.007256,	 86134.420698,	 347.251802,	 0.010668 
0.670000,	 0.000047,	 1.000036,	 3.704398,	 -0.000550,	 300.007255,	 86134.420050,	 347.251802,	 0.010668 
0.690000,	 0.000047,	 1.000036,	 3.704398,	 -0.000550,	 300.007254,	 86134.419365,	 347.251801,	 0.010668 
0.710000,	 0.000047,	 1.000036,	 3.704398,	 -0.000550,	 300.007254,	 86134.418712,	 347.251801,	 0.010668 
0.730000,	 0.000047,	 1.000036,	 3.704399,	 -0.000550,	 300.007253,	 86134.417869,	 347.251801,	 0.010668 
0.750000,	 0.000047,	 1.000036,	 3.704400,	 -0.000550,	 300.007252,	 86134.417072,	 347.251800,	 0.010668 
0.770000,	 0.000047,	 1.000036,	 3.704402,	 -0.000550,	 300.007251,	 86134.416130,	 347.251800,	 0.010668 
0.790000,	 0.000047,	 1.000036,	 3.704408,	 -0.000550,	 300.007250,	 86134.415155,	 347.251799,	 0.010668 
0.810000,	 0.000047,	 1.000036,	 3.704431,	 -0.000550,	 300.007249,	 86134.414043,	 347.251798,	 0.010668 
0.830000,	 0.000047,	 1.000036,	 3.704518,	 -0.000551,	 300.007247,	 86134.412712,	 347.251797,	 0.010668 
0.850000,	 0.000047,	 1.000036,	 3.704838,	 -0.000551,	 300.007244,	 86134.410924,	 347.251795,	 0.010669 
0.870000,	 0.000047,	 1.000036,	 3.705985,	 -0.000554,	 300.007235,	 86134.408169,	 347.251790,	 0.010672 
0.890000,	 0.000047,	 1.000036,	 3.709933,	 -0.000563,	 300.007208,	 86134.403200,	 347.251775,	 0.010684 
0.910000,	 0.000047,	 1.000036,	 3.722953,	 -0.000594,	 300.007113,	 86134.392714,	 347.251720,	 0.010721 
0.930000,	 0.000047,	 1.000037,	 3.764105,	 -0.000696,	 300.006774,	 86134.368919,	 347.251523,	 0.010840 
0.950000,	 0.000047,	 1.000041,	 3.889253,	 -0.001034,	 300.005541,	 86134.308724,	 347.250810,	 0.011200 
0.970000,	 0.000047,	 1.000053,	 4.257677,	 -0.002213,	 300.001091,	 86134.125710,	 347.248235,	 0.012261 
0.990000,	 0.000047,	 1.000092,	 5.304450,	 -0.006673,	 299.987089,	 86133.421918,	 347.240131,	 0.015276 
0.010000,	 0.000086,	 1.000023,	 9.999858,	 -0.000008,	 300.002705,	 86131.930174,	 347.249169,	 0.028797 
0.030000,	 0.000086,	 1.000023,	 9.999800,	 -0.000008,	 300.002749,	 86131.977137,	 347.249194,	 0.028797 
0.050000,	 0.000086,	 1.000023,	 9.999643,	 -0.000006,	 300.002750,	 86131.973162,	 347.249195,	 0.028797 
0.070000,	 0.000086,	 1.000023,	 9.998901,	 -0.000001,	 300.002759,	 86131.974194,	 347.249200,	 0.028795 
0.090000,	 0.000086,	 1.000023,	 9.996390,	 0.000010,	 300.002791,	 86131.977192,	 347.249218,	 0.028787 
0.110000,	 0.000086,	 1.000023,	 9.988502,	 0.000062,	 300.002896,	 86131.986745,	 347.249279,	 0.028765 
0.130000,	 0.000086,	 1.000022,	 9.964885,	 0.000212,	 300.003217,	 86132.011998,	 347.249465,	 0.028697 
0.150000,	 0.000086,	 1.000020,	 9.898500,	 0.000673,	 300.004114,	 86132.079111,	 347.249984,	 0.028505 
0.170000,	 0.000086,	 1.000014,	 9.726898,	 0.002060,	 300.006309,	 86132.252811,	 347.251254,	 0.028011 
0.190000,	 0.000086,	 1.000006,	 9.326964,	 0.006465,	 300.010474,	 86132.694844,	 347.253665,	 0.026859 
0.210000,	 0.000086,	 1.000008,	 8.524483,	 0.022752,	 300.014388,	 86134.021447,	 347.255930,	 0.024548 
0.230000,	 0.000086,	 1.000061,	 7.317742,	 0.008405,	 299.997400,	 86133.714459,	 347.246098,	 0.021074 
0.250000,	 0.000086,	 1.000054,	 6.572764,	 0.001962,	 299.999612,	 86133.732973,	 347.247378,	 0.018928 
0.270000,	 0.000086,	 1.000043,	 6.215538,	 0.000157,	 300.002792,	 86133.749059,	 347.249219,	 0.017899 
0.290000,	 0.000086,	 1.000038,	 6.064868,	 -0.000424,	 300.004362,	 86133.746028,	 347.250127,	 0.017465 
0.310000,	 0.000086,	 1.000036,	 6.006810,	 -0.000624,	 300.004970,	 86133.751371,	 347.250479,	 0.017298 
0.330000,	 0.000086,	 1.000036,	 5.985969,	 -0.000694,	 300.005184,	 86133.761466,	 347.250603,	 0.017238 
0.350000,	 0.000086,	 1.000035,	 5.978949,	 -0.000718,	 300.005259,	 86133.771302,	 347.250647,	 0.017218 
0.370000,	 0.000086,	 1.000035,	 5.976725,	 -0.000725,	 300.005286,	 86133.778771,	 347.250662,	 0.017212 
0.390000,	 0.000086,	 1.000035,	 5.976064,	 -0.000728,	 300.005297,	 86133.783851,	 347.250668,	 0.017210 
0.410000,	 0.000086,	 1.000035,	 5.975883,	 -0.000728,	 300.005301,	 86133.787015,	 347.250671,	 0.017209 
0.430000,	 0.000086,	 1.000035,	 5.975840,	 -0.000729,	 300.005304,	 86133.788851,	 347.250672,	 0.017209 
0.450000,	 0.000086,	 1.000035,	 5.975833,	 -0.000729,	 300.005305,	 86133.789869,	 347.250673,	 0.017209 
0.470000,	 0.000086,	 1.000035,	 5.975834,	 -0.000729,	 300.005305,	 86133.790290,	 347.250673,	 0.017209 
0.490000,	 0.000086,	 1.000035,	 5.975836,	 -0.000729,	 300.005305,	 86133.790397,	 347.250673,	 0.017209 
0.510000,	 0.000086,	 1.000035,	 5.975838,	 -0.000729,	 300.005305,	 86133.790281,	 347.250673,	 0.017209 
0.530000,	 0.000086,	 1.000035,	 5.975839,	 -0.000729,	 300.005305,	 86133.790001,	 347.250673,	 0.017209 
0.550000,	 0.000086,	 1.000035,	 5.975840,	 -0.000729,	 300.005304,	 86133.789669,	 347.250673,	 0.017209 
0.570000,	 0.000086,	 1.000035,	 5.975841,	 -0.000729,	 300.005304,	 86133.789240,	 347.250673,	 0.017209 
0.590000,	 0.000086,	 1.000035,	 5.975841,	 -0.000729,	 300.005304,	 86133.788741,	 347.250672,	 0.017209 
0.610000,	 0.000086,	 1.000035,	 5.975842,	 -0.000729,	 300.005303,	 86133.788199,	 347.250672,	 0.017209 
0.630000,	 0.000086,	 1.000035,	 5.975842,	 -0.000729,	 300.005302,	 86133.787659,	 347.250672,	 0.017209 
0.650000,	 0.000086,	 1.000035,	 5.975842,	 -0.000729,	 300.005302,	 86133.787083,	 347.250671,	 0.017209 
0.670000,	 0.000086,	 1.000035,	 5.975843,	 -0.000729,	 300.005301,	 86133.786421,	 347.250671,	 0.017209 
0.690000,	 0.000086,	 1.000035,	 5.975843,	 -0.000729,	 300.005301,	 86133.785736,	 347.250671,	 0.017209 
0.710000,	 0.000086,	 1.000035,	 5.975844,	 -0.000729,	 300.005300,	 86133.785061,	 347.250670,	 0.017209 
0.730000,	 0.000086,	 1.000035,	 5.975845,	 -0.000729,	 300.005299,	 86133.784241,	 347.250670,	 0.017209 
0.750000,	 0.000086,	 1.000035,	 5.975846,	 -0.000729,	 300.005298,	 86133.783429,	 347.250669,	 0.017209 
0.770000,	 0.000086,	 1.000035,	 5.975850,	 -0.000729,	 300.005297,	 86133.782513,	 347.250669,	 0.017209 
0.790000,	 0.000086,	 1.000035,	 5.975861,	 -0.000729,	 300.005296,	 86133.781522,	 347.250668,	 0.017209 
0.810000,	 0.000086,	 1.000035,	 5.975902,	 -0.000729,	 300.005295,	 86133.780407,	 347.250667,	 0.017209 
0.830000,	 0.000086,	 1.000035,	 5.976048,	 -0.000729,	 300.005292,	 86133.779016,	 347.250666,	 0.017210 
0.850000,	 0.000086,	 1.000035,	 5.976567,	 -0.000732,	 300.005287,	 86133.777018,	 347.250663,	 0.017211 
0.870000,	 0.000086,	 1.000035,	 5.978334,	 -0.000739,	 300.005269,	 86133.773506,	 347.250652,	 0.017216 
0.890000,	 0.000086,	 1.000035,	 5.984088,	 -0.000762,	 300.005213,	 86133.765988,	 347.250620,	 0.017233 
0.910000,	 0.000086,	 1.000036,	 6.001872,	 -0.000834,	 300.005037,	 86133.747632,	 347.250518,	 0.017284 
0.930000,	 0.000086,	 1.000037,	 6.053710,	 -0.001048,	 300.004504,	 86133.701088,	 347.250210,	 0.017433 
0.950000,	 0.000086,	 1.000041,	 6.195110,	 -0.001665,	 300.003011,	 86133.582383,	 347.249346,	 0.017841 
0.970000,	 0.000086,	 1.000049,	 6.551386,	 -0.003464,	 299.999377,	 86133.280690,	 347.247243,	 0.018867 
0.990000,	 0.000086,	 1.000060,	 7.356763,	 -0.009029,	 299.993401,	 86132.498347,	 347.243784,	 0.021186 
0.010000,	 0.000130,	 1.000023,	 9.999839,	 -0.000011,	 300.002705,	 86131.930172,	 347.249169,	 0.028797 
0.030000,	 0.000130,	 1.000023,	 9.999767,	 -0.000009,	 300.002749,	 86131.977156,	 347.249194,	 0.028797 
0.050000,	 0.000130,	 1.000023,	 9.999581,	 -0.000007,	 300.002751,	 86131.973246,	 347.249195,	 0.028797 
0.070000,	 0.000130,	 1.000023,	 9.998781,	 0.000001,	 300.002761,	 86131.974474,	 347.249201,	 0.028794 
0.090000,	 0.000130,	 1.000023,	 9.996228,	 0.000019,	 300.002793,	 86131.978046,	 347.249219,	 0.028787 
0.110000,	 0.000130,	 1.000023,	 9.988716,	 0.000092,	 300.002886,	 86131.989106,	 347.249273,	 0.028765 
0.130000,	 0.000130,	 1.000022,	 9.968052,	 0.000297,	 300.003133,	 86132.017318,	 347.249416,	 0.028706 
0.150000,	 0.000130,	 1.000021,	 9.915487,	 0.000882,	 300.003718,	 86132.087628,	 347.249755,	 0.028554 
0.170000,	 0.000130,	 1.000019,	 9.794214,	 0.002521,	 300.004869,	 86132.254544,	 347.250421,	 0.028205 
0.190000,	 0.000130,	 1.000018,	 9.547196,	 0.007352,	 300.006496,	 86132.637580,	 347.251363,	 0.027494 
0.210000,	 0.000130,	 1.000028,	 9.126078,	 0.024168,	 300.007250,	 86133.736681,	 347.251799,	 0.026281 
0.230000,	 0.000130,	 1.000038,	 8.597224,	 0.010222,	 300.001465,	 86132.902513,	 347.248451,	 0.024758 
0.250000,	 0.000130,	 1.000039,	 8.202601,	 0.003115,	 300.001206,	 86132.908041,	 347.248301,	 0.023622 
0.270000,	 0.000130,	 1.000036,	 7.975189,	 0.000743,	 300.002371,	 86132.990904,	 347.248975,	 0.022967 
0.290000,	 0.000130,	 1.000033,	 7.863287,	 -0.000145,	 300.003277,	 86133.028401,	 347.249499,	 0.022644 
0.310000,	 0.000130,	 1.000032,	 7.814315,	 -0.000484,	 300.003752,	 86133.050044,	 347.249775,	 0.022503 
0.330000,	 0.000130,	 1.000032,	 7.794790,	 -0.000609,	 300.003961,	 86133.065426,	 347.249896,	 0.022447 
0.350000,	 0.000130,	 1.000031,	 7.787589,	 -0.000654,	 300.004045,	 86133.076677,	 347.249944,	 0.022426 
0.370000,	 0.000130,	 1.000031,	 7.785116,	 -0.000669,	 300.004078,	 86133.084473,	 347.249963,	 0.022419 
0.390000,	 0.000130,	 1.000031,	 7.784324,	 -0.000674,	 300.004092,	 86133.089593,	 347.249971,	 0.022417 
0.410000,	 0.000130,	 1.000031,	 7.784090,	 -0.000675,	 300.004097,	 86133.092753,	 347.249974,	 0.022416 
0.430000,	 0.000130,	 1.000031,	 7.784030,	 -0.000676,	 300.004100,	 86133.094596,	 347.249976,	 0.022416 
0.450000,	 0.000130,	 1.000031,	 7.784018,	 -0.000676,	 300.004101,	 86133.095611,	 347.249976,	 0.022416 
0.470000,	 0.000130,	 1.000031,	 7.784019,	 -0.000676,	 300.004101,	 86133.096031,	 347.249977,	 0.022416 
0.490000,	 0.000130,	 1.000031,	 7.784022,	 -0.000676,	 300.004102,	 86133.096137,	 347.249977,	 0.022416 
0.510000,	 0.000130,	 1.000031,	 7.784024,	 -0.000676,	 300.004101,	 86133.096012,	 347.249977,	 0.022416 
0.530000,	 0.000130,	 1.000031,	 7.784026,	 -0.000676,	 300.004101,	 86133.095742,	 347.249977,	 0.022416 
0.550000,	 0.000130,	 1.000031,	 7.784027,	 -0.000676,	 300.004101,	 86133.095394,	 347.249976,	 0.022416 
0.570000,	 0.000130,	 1.000031,	 7.784028,	 -0.000676,	 300.004100,	 86133.094964,	 347.249976,	 0.022416 
0.590000,	 0.000130,	 1.000031,	 7.784028,	 -0.000676,	 300.004100,	 86133.094483,	 347.249976,	 0.022416 
0.610000,	 0.000130,	 1.000031,	 7.784029,	 -0.000676,	 300.004099,	 86133.093940,	 347.249976,	 0.022416 
0.630000,	 0.000130,	 1.000031,	 7.784029,	 -0.000676,	 300.004099,	 86133.093390,	 347.249975,	 0.022416 
0.650000,	 0.000130,	 1.000031,	 7.784030,	 -0.000676,	 300.004098,	 86133.092814,	 347.249975,	 0.022416 
0.670000,	 0.000130,	 1.000031,	 7.784031,	 -0.000676,	 300.004098,	 86133.092163,	 347.249974,	 0.022416 
0.690000,	 0.000130,	 1.000031,	 7.784031,	 -0.000676,	 300.004097,	 86133.091477,	 347.249974,	 0.022416 
0.710000,	 0.000130,	 1.000031,	 7.784032,	 -0.000676,	 300.004096,	 86133.090777,	 347.249974,	 0.022416 
0.730000,	 0.000130,	 1.000031,	 7.784033,	 -0.000676,	 300.004095,	 86133.089983,	 347.249973,	 0.022416 
0.750000,	 0.000130,	 1.000031,	 7.784036,	 -0.000676,	 300.004095,	 86133.089161,	 347.249973,	 0.022416 
0.770000,	 0.000130,	 1.000031,	 7.784041,	 -0.000676,	 300.004094,	 86133.088252,	 347.249972,	 0.022416 
0.790000,	 0.000130,	 1.000031,	 7.784057,	 -0.000676,	 300.004093,	 86133.087256,	 347.249972,	 0.022416 
0.810000,	 0.000130,	 1.000031,	 7.784113,	 -0.000676,	 300.004091,	 86133.086120,	 347.249971,	 0.022416 
0.830000,	 0.000130,	 1.000031,	 7.784301,	 -0.000677,	 300.004088,	 86133.084664,	 347.249969,	 0.022417 
0.850000,	 0.000130,	 1.000031,	 7.784925,	 -0.000681,	 300.004080,	 86133.082476,	 347.249964,	 0.022419 
0.870000,	 0.000130,	 1.000031,	 7.786913,	 -0.000695,	 300.004057,	 86133.078340,	 347.249951,	 0.022425 
0.890000,	 0.000130,	 1.000031,	 7.792925,	 -0.000735,	 300.003991,	 86133.069105,	 347.249913,	 0.022442 
0.910000,	 0.000130,	 1.000032,	 7.810051,	 -0.000852,	 300.003808,	 86133.046669,	 347.249807,	 0.022491 
0.930000,	 0.000130,	 1.000033,	 7.855544,	 -0.001177,	 300.003340,	 86132.992111,	 347.249536,	 0.022622 
0.950000,	 0.000130,	 1.000035,	 7.966774,	 -0.002039,	 300.002292,	 86132.863982,	 347.248930,	 0.022943 
0.970000,	 0.000130,	 1.000038,	 8.212297,	 -0.004305,	 300.000414,	 86132.578258,	 347.247843,	 0.023650 
0.990000,	 0.000130,	 1.000037,	 8.685585,	 -0.010579,	 299.998453,	 86131.940459,	 347.246707,	 0.025013 
0.010000,	 0.000182,	 1.000023,	 9.999822,	 -0.000013,	 300.002706,	 86131.930170,	 347.249169,	 0.028797 
0.030000,	 0.000182,	 1.000023,	 9.999745,	 -0.000011,	 300.002748,	 86131.977170,	 347.249193,	 0.028797 
0.050000,	 0.000182,	 1.000023,	 9.999572,	 -0.000008,	 300.002751,	 86131.973292,	 347.249195,	 0.028797 
0.070000,	 0.000182,	 1.000023,	 9.998874,	 0.000002,	 300.002759,	 86131.974572,	 347.249200,	 0.028795 
0.090000,	 0.000182,	 1.000023,	 9.996811,	 0.000029,	 300.002784,	 86131.978146,	 347.249214,	 0.028789 
0.110000,	 0.000182,	 1.000023,	 9.991246,	 0.000120,	 300.002847,	 86131.988739,	 347.249251,	 0.028773 
0.130000,	 0.000182,	 1.000023,	 9.977313,	 0.000367,	 300.002995,	 86132.014322,	 347.249336,	 0.028732 
0.150000,	 0.000182,	 1.000022,	 9.945263,	 0.001042,	 300.003294,	 86132.074482,	 347.249510,	 0.028640 
0.170000,	 0.000182,	 1.000022,	 9.878782,	 0.002846,	 300.003796,	 86132.209945,	 347.249800,	 0.028449 
0.190000,	 0.000182,	 1.000024,	 9.757860,	 0.007930,	 300.004396,	 86132.512216,	 347.250147,	 0.028100 
0.210000,	 0.000182,	 1.000033,	 9.575208,	 0.025014,	 300.004763,	 86133.447004,	 347.250360,	 0.027574 
0.230000,	 0.000182,	 1.000028,	 9.368732,	 0.011235,	 300.002651,	 86132.388237,	 347.249137,	 0.026980 
0.250000,	 0.000182,	 1.000029,	 9.198356,	 0.003938,	 300.002189,	 86132.318922,	 347.248870,	 0.026489 
0.270000,	 0.000182,	 1.000029,	 9.086904,	 0.001311,	 300.002485,	 86132.400136,	 347.249041,	 0.026168 
0.290000,	 0.000182,	 1.000028,	 9.024913,	 0.000242,	 300.002856,	 86132.450185,	 347.249256,	 0.025990 
0.310000,	 0.000182,	 1.000028,	 8.994368,	 -0.000197,	 300.003108,	 86132.480934,	 347.249402,	 0.025902 
0.330000,	 0.000182,	 1.000027,	 8.980826,	 -0.000369,	 300.003245,	 86132.500598,	 347.249481,	 0.025863 
0.350000,	 0.000182,	 1.000027,	 8.975327,	 -0.000434,	 300.003310,	 86132.513478,	 347.249519,	 0.025847 
0.370000,	 0.000182,	 1.000027,	 8.973264,	 -0.000457,	 300.003339,	 86132.521827,	 347.249535,	 0.025841 
0.390000,	 0.000182,	 1.000027,	 8.972548,	 -0.000464,	 300.003352,	 86132.527087,	 347.249543,	 0.025839 
0.410000,	 0.000182,	 1.000027,	 8.972321,	 -0.000467,	 300.003358,	 86132.530282,	 347.249546,	 0.025838 
0.430000,	 0.000182,	 1.000027,	 8.972258,	 -0.000467,	 300.003360,	 86132.532148,	 347.249548,	 0.025838 
0.450000,	 0.000182,	 1.000027,	 8.972246,	 -0.000468,	 300.003362,	 86132.533153,	 347.249549,	 0.025838 
0.470000,	 0.000182,	 1.000027,	 8.972247,	 -0.000468,	 300.003362,	 86132.533579,	 347.249549,	 0.025838 
0.490000,	 0.000182,	 1.000027,	 8.972250,	 -0.000468,	 300.003362,	 86132.533686,	 347.249549,	 0.025838 
0.510000,	 0.000182,	 1.000027,	 8.972253,	 -0.000468,	 300.003362,	 86132.533554,	 347.249549,	 0.025838 
0.530000,	 0.000182,	 1.000027,	 8.972255,	 -0.000468,	 300.003362,	 86132.533295,	 347.249549,	 0.025838 
0.550000,	 0.000182,	 1.000027,	 8.972256,	 -0.000468,	 300.003362,	 86132.532930,	 347.249548,	 0.025838 
0.570000,	 0.000182,	 1.000027,	 8.972257,	 -0.000468,	 300.003361,	 86132.532500,	 347.249548,	 0.025838 
0.590000,	 0.000182,	 1.000027,	 8.972258,	 -0.000468,	 300.003361,	 86132.532025,	 347.249548,	 0.025838 
0.610000,	 0.000182,	 1.000027,	 8.972259,	 -0.000468,	 300.003360,	 86132.531493,	 347.249548,	 0.025838 
0.630000,	 0.000182,	 1.000027,	 8.972260,	 -0.000468,	 300.003360,	 86132.530934,	 347.249547,	 0.025838 
0.650000,	 0.000182,	 1.000027,	 8.972260,	 -0.000468,	 300.003359,	 86132.530346,	 347.249547,	 0.025838 
0.670000,	 0.000182,	 1.000027,	 8.972261,	 -0.000468,	 300.003358,	 86132.529704,	 347.249547,	 0.025838 
0.690000,	 0.000182,	 1.000027,	 8.972262,	 -0.000468,	 300.003358,	 86132.529030,	 347.249546,	 0.025838 
0.710000,	 0.000182,	 1.000027,	 8.972263,	 -0.000468,	 300.003357,	 86132.528302,	 347.249546,	 0.025838 
0.730000,	 0.000182,	 1.000027,	 8.972265,	 -0.000468,	 300.003356,	 86132.527524,	 347.249545,	 0.025838 
0.750000,	 0.000182,	 1.000027,	 8.972267,	 -0.000468,	 300.003355,	 86132.526692,	 347.249545,	 0.025838 
0.770000,	 0.000182,	 1.000027,	 8.972274,	 -0.000468,	 300.003354,	 86132.525791,	 347.249544,	 0.025838 
0.790000,	 0.000182,	 1.000027,	 8.972294,	 -0.000468,	 300.003353,	 86132.524790,	 347.249544,	 0.025838 
0.810000,	 0.000182,	 1.000027,	 8.972355,	 -0.000468,	 300.003351,	 86132.523640,	 347.249543,	 0.025838 
0.830000,	 0.000182,	 1.000027,	 8.972546,	 -0.000470,	 300.003348,	 86132.522150,	 347.249541,	 0.025839 
0.850000,	 0.000182,	 1.000027,	 8.973132,	 -0.000476,	 300.003340,	 86132.519872,	 347.249536,	 0.025841 
0.870000,	 0.000182,	 1.000027,	 8.974847,	 -0.000495,	 300.003320,	 86132.515607,	 347.249524,	 0.025846 
0.890000,	 0.000182,	 1.000027,	 8.979607,	 -0.000552,	 300.003266,	 86132.506324,	 347.249493,	 0.025859 
0.910000,	 0.000182,	 1.000028,	 8.991994,	 -0.000708,	 300.003138,	 86132.484927,	 347.249419,	 0.025895 
0.930000,	 0.000182,	 1.000028,	 9.021873,	 -0.001119,	 300.002857,	 86132.436217,	 347.249256,	 0.025981 
0.950000,	 0.000182,	 1.000028,	 9.087716,	 -0.002153,	 300.002332,	 86132.330089,	 347.248953,	 0.026171 
0.970000,	 0.000182,	 1.000028,	 9.217629,	 -0.004719,	 300.001576,	 86132.110961,	 347.248515,	 0.026545 
0.990000,	 0.000182,	 1.000025,	 9.440356,	 -0.011407,	 300.000914,	 86131.634364,	 347.248132,	 0.027186 
0.010000,	 0.000244,	 1.000023,	 9.999808,	 -0.000015,	 300.002706,	 86131.930163,	 347.249169,	 0.028797 
0.030000,	 0.000244,	 1.000023,	 9.999738,	 -0.000013,	 300.002747,	 86131.977163,	 347.249193,	 0.028797 
0.050000,	 0.000244,	 1.000023,	 9.999618,	 -0.000008,	 300.002750,	 86131.973264,	 347.249195,	 0.028797 
0.070000,	 0.000244,	 1.000023,	 9.999130,	 0.000004,	 300.002756,	 86131.974425,	 347.249198,	 0.028795 
0.090000,	 0.000244,	 1.000023,	 9.997801,	 0.000035,	 300.002771,	 86131.977530,	 347.249207,	 0.028791 
0.110000,	 0.000244,	 1.000023,	 9.994543,	 0.000139,	 300.002806,	 86131.986521,	 347.249227,	 0.028782 
0.130000,	 0.000244,	 1.000023,	 9.987158,	 0.000414,	 300.002880,	 86132.007344,	 347.249270,	 0.028761 
0.150000,	 0.000244,	 1.000023,	 9.971789,	 0.001142,	 300.003014,	 86132.055020,	 347.249347,	 0.028717 
0.170000,	 0.000244,	 1.000023,	 9.942942,	 0.003037,	 300.003225,	 86132.161829,	 347.249469,	 0.028633 
0.190000,	 0.000244,	 1.000025,	 9.895434,	 0.008248,	 300.003500,	 86132.408069,	 347.249629,	 0.028497 
0.210000,	 0.000244,	 1.000034,	 9.830936,	 0.025448,	 300.003969,	 86133.255736,	 347.249900,	 0.028311 
0.230000,	 0.000244,	 1.000024,	 9.762848,	 0.011752,	 300.002885,	 86132.103864,	 347.249273,	 0.028115 
0.250000,	 0.000244,	 1.000024,	 9.702286,	 0.004420,	 300.002519,	 86131.983150,	 347.249061,	 0.027940 
0.270000,	 0.000244,	 1.000024,	 9.658890,	 0.001710,	 300.002567,	 86132.047697,	 347.249088,	 0.027815 
0.290000,	 0.000244,	 1.000024,	 9.632284,	 0.000564,	 300.002703,	 86132.096281,	 347.249167,	 0.027739 
0.310000,	 0.000244,	 1.000024,	 9.617809,	 0.000075,	 300.002815,	 86132.129392,	 347.249232,	 0.027697 
0.330000,	 0.000244,	 1.000024,	 9.610702,	 -0.000126,	 300.002887,	 86132.151143,	 347.249274,	 0.027677 
0.350000,	 0.000244,	 1.000025,	 9.607532,	 -0.000204,	 300.002927,	 86132.165130,	 347.249297,	 0.027668 
0.370000,	 0.000244,	 1.000025,	 9.606235,	 -0.000233,	 300.002948,	 86132.173955,	 347.249309,	 0.027664 
0.390000,	 0.000244,	 1.000025,	 9.605750,	 -0.000243,	 300.002959,	 86132.179400,	 347.249315,	 0.027662 
0.410000,	 0.000244,	 1.000025,	 9.605588,	 -0.000246,	 300.002964,	 86132.182659,	 347.249318,	 0.027662 
0.430000,	 0.000244,	 1.000025,	 9.605543,	 -0.000247,	 300.002967,	 86132.184536,	 347.249320,	 0.027662 
0.450000,	 0.000244,	 1.000025,	 9.605536,	 -0.000248,	 300.002968,	 86132.185534,	 347.249321,	 0.027662 
0.470000,	 0.000244,	 1.000025,	 9.605539,	 -0.000248,	 300.002968,	 86132.185975,	 347.249321,	 0.027662 
0.490000,	 0.000244,	 1.000025,	 9.605544,	 -0.000248,	 300.002968,	 86132.186080,	 347.249321,	 0.027662 
0.510000,	 0.000244,	 1.000025,	 9.605547,	 -0.000248,	 300.002968,	 86132.185957,	 347.249321,	 0.027662 
0.530000,	 0.000244,	 1.000025,	 9.605550,	 -0.000248,	 300.002968,	 86132.185695,	 347.249321,	 0.027662 
0.550000,	 0.000244,	 1.000025,	 9.605552,	 -0.000248,	 300.002968,	 86132.185333,	 347.249321,	 0.027662 
0.570000,	 0.000244,	 1.000025,	 9.605553,	 -0.000248,	 300.002967,	 86132.184904,	 347.249320,	 0.027662 