TITLE = "Final State"
VARIABLES = "X", "Y", "rho", "u", "v", "T", "p", "c", "M"
ZONE I=100, J=100, DATAPACKING=POINT
0.015000,	 0.007425,	 1.000000,	 1000.000000,	 -0.000000,	 300.000000,	 86129.212707,	 347.247603,	 2.879789 
0.045000,	 0.007425,	 1.000000,	 1000.000000,	 0.000000,	 300.000000,	 86129.212707,	 347.247603,	 2.879789 
0.075000,	 0.007425,	 1.000000,	 1000.000000,	 0.000000,	 300.000000,	 86129.212707,	 347.247603,	 2.879789 
0.105000,	 0.007425,	 1.000000,	 1000.000000,	 0.000000,	 300.000000,	 86129.212707,	 347.247603,	 2.879789 
0.135000,	 0.007425,	 1.000000,	 1000.000000,	 0.000000,	 300.000000,	 86129.212707,	 347.247603,	 2.879789 
0.165000,	 0.007425,	 1.000000,	 1000.000000,	 0.000000,	 300.000000,	 86129.212707,	 347.247603,	 2.879789 
0.195000,	 0.007425,	 1.000000,	 1000.000000,	 0.000000,	 300.000000,	 86129.212707,	 347.247603,	 2.879789 
0.225000,	 0.007425,	 1.000000,	 1000.000000,	 0.000000,	 300.000000,	 86129.212707,	 347.247603,	 2.879789 
0.255000,	 0.007425,	 1.000000,	 1000.000000,	 0.000000,	 300.000000,	 86129.212707,	 347.247603,	 2.879789 
0.285000,	 0.007425,	 1.000000,	 1000.000000,	 0.000000,	 300.000000,	 86129.212709,	 347.247603,	 2.879789 
0.315000,	 0.007425,	 1.000010,	 999.980852,	 -0.002277,	 300.014055,	 86134.141107,	 347.255737,	 2.879667 
0.345000,	 0.007425,	 1.000009,	 999.965402,	 -0.001863,	 300.024431,	 86137.042989,	 347.261742,	 2.879573 
0.375000,	 0.007425,	 1.000001,	 999.954681,	 -0.001198,	 300.030101,	 86137.901955,	 347.265024,	 2.879515 
0.405000,	 0.007425,	 0.999989,	 999.946163,	 -0.000872,	 300.033580,	 86137.877215,	 347.267037,	 2.879473 
0.435000,	 0.007425,	 0.999976,	 999.938097,	 -0.000799,	 300.036609,	 86137.692473,	 347.268790,	 2.879436 
0.465000,	 0.007425,	 0.999965,	 999.929878,	 -0.000820,	 300.039789,	 86137.578610,	 347.270630,	 2.879397 
0.495000,	 0.007425,	 0.999953,	 999.921470,	 -0.000848,	 300.043158,	 86137.541292,	 347.272580,	 2.879356 
0.525000,	 0.007425,	 0.999941,	 999.912967,	 -0.000862,	 300.046622,	 86137.539245,	 347.274584,	 2.879315 
0.555000,	 0.007425,	 0.999930,	 999.904439,	 -0.000867,	 300.050110,	 86137.545027,	 347.276603,	 2.879274 
0.585000,	 0.007425,	 0.999918,	 999.895911,	 -0.000867,	 300.053597,	 86137.549077,	 347.278621,	 2.879233 
0.615000,	 0.007425,	 0.999907,	 999.887390,	 -0.000866,	 300.057079,	 86137.550557,	 347.280636,	 2.879191 
0.645000,	 0.007425,	 0.999895,	 999.878871,	 -0.000866,	 300.060559,	 86137.550748,	 347.282649,	 2.879150 
0.675000,	 0.007425,	 0.999883,	 999.870352,	 -0.000866,	 300.064037,	 86137.550614,	 347.284662,	 2.879109 
0.705000,	 0.007425,	 0.999872,	 999.861834,	 -0.000866,	 300.067515,	 86137.550520,	 347.286675,	 2.879068 
0.735000,	 0.007425,	 0.999860,	 999.853315,	 -0.000866,	 300.070994,	 86137.550510,	 347.288688,	 2.879026 
0.765000,	 0.007425,	 0.999849,	 999.844796,	 -0.000866,	 300.074473,	 86137.550546,	 347.290701,	 2.878985 
0.795000,	 0.007425,	 0.999837,	 999.836277,	 -0.000866,	 300.077952,	 86137.550593,	 347.292714,	 2.878944 
0.825000,	 0.007425,	 0.999825,	 999.827758,	 -0.000866,	 300.081431,	 86137.550639,	 347.294727,	 2.878903 
0.855000,	 0.007425,	 0.999814,	 999.819239,	 -0.000866,	 300.084909,	 86137.550681,	 347.296740,	 2.878862 
0.885000,	 0.007425,	 0.999802,	 999.810720,	 -0.000866,	 300.088388,	 86137.550721,	 347.298754,	 2.878820 
0.915000,	 0.007425,	 0.999791,	 999.802200,	 -0.000866,	 300.091867,	 86137.550761,	 347.300767,	 2.878779 
0.945000,	 0.007425,	 0.999779,	 999.793681,	 -0.000866,	 300.095346,	 86137.550800,	 347.302780,	 2.878738 
0.975000,	 0.007425,	 0.999768,	 999.785024,	 -0.000845,	 300.098724,	 86137.533646,	 347.304735,	 2.878697 
1.005000,	 0.009913,	 1.422350,	 764.269896,	 93.386929,	 500.385854,	 204334.089446,	 448.467671,	 1.716856 
1.035000,	 0.016133,	 1.657775,	 676.116272,	 155.427537,	 554.263925,	 263797.931585,	 471.994497,	 1.469829 
1.065000,	 0.023595,	 1.584242,	 697.954357,	 174.880342,	 536.730084,	 244121.941961,	 464.468856,	 1.549146 
1.095000,	 0.031058,	 1.536602,	 708.669294,	 179.573002,	 528.652408,	 233217.325889,	 460.960526,	 1.585964 
1.125000,	 0.038521,	 1.509445,	 714.133517,	 180.340076,	 524.759198,	 227408.510289,	 459.260040,	 1.603780 
1.155000,	 0.045984,	 1.495009,	 716.789846,	 180.241497,	 522.934390,	 224450.393274,	 458.460824,	 1.612142 
1.185000,	 0.053447,	 1.487760,	 718.325616,	 180.096833,	 521.889166,	 222915.485688,	 458.002417,	 1.616931 
1.215000,	 0.060909,	 1.484329,	 719.136671,	 180.013379,	 521.334993,	 222165.366568,	 457.759185,	 1.619464 
1.245000,	 0.068373,	 1.482736,	 719.544903,	 179.981146,	 521.051516,	 221806.280840,	 457.634715,	 1.620753 
1.275000,	 0.075836,	 1.482007,	 719.747832,	 179.972650,	 520.906579,	 221635.448567,	 457.571062,	 1.621404 
1.305000,	 0.083298,	 1.481688,	 719.850032,	 179.972029,	 520.830289,	 221555.395684,	 457.537554,	 1.621740 
1.335000,	 0.090761,	 1.481588,	 719.890523,	 179.971336,	 520.796900,	 221526.209126,	 457.522888,	 1.621877 
1.365000,	 0.098224,	 1.481598,	 719.887571,	 179.968157,	 520.794127,	 221526.511606,	 457.521669,	 1.621873 
1.395000,	 0.105687,	 1.481645,	 719.870614,	 179.963310,	 520.801333,	 221536.602244,	 457.524835,	 1.621824 
1.425000,	 0.113150,	 1.481709,	 719.847763,	 179.957320,	 520.812783,	 221551.033157,	 457.529864,	 1.621754 
1.455000,	 0.120612,	 1.481787,	 719.820097,	 179.950213,	 520.827718,	 221569.070600,	 457.536424,	 1.621668 
1.485000,	 0.128075,	 1.481867,	 719.791434,	 179.943045,	 520.843295,	 221587.656621,	 457.543266,	 1.621580 
1.515000,	 0.135539,	 1.481945,	 719.763209,	 179.936069,	 520.858471,	 221605.711617,	 457.549932,	 1.621493 
1.545000,	 0.143001,	 1.482018,	 719.736201,	 179.929391,	 520.872686,	 221622.707068,	 457.556176,	 1.621410 
1.575000,	 0.150464,	 1.482092,	 719.708638,	 179.922545,	 520.887251,	 221640.001600,	 457.562573,	 1.621325 
1.605000,	 0.157927,	 1.482160,	 719.682625,	 179.916185,	 520.900586,	 221655.867457,	 457.568430,	 1.621246 
1.635000,	 0.165390,	 1.482222,	 719.658318,	 179.910259,	 520.912593,	 221670.230976,	 457.573703,	 1.621172 
1.665000,	 0.172853,	 1.482278,	 719.635858,	 179.904751,	 520.923174,	 221683.043708,	 457.578350,	 1.621105 
1.695000,	 0.180316,	 1.482334,	 719.613087,	 179.899114,	 520.933924,	 221695.970183,	 457.583072,	 1.621037 
1.725000,	 0.187779,	 1.482384,	 719.591771,	 179.893917,	 520.943515,	 221707.551080,	 457.587284,	 1.620974 
1.755000,	 0.195241,	 1.482428,	 719.571897,	 179.889077,	 520.951969,	 221717.839595,	 457.590997,	 1.620916 
1.785000,	 0.202704,	 1.482468,	 719.553508,	 179.884562,	 520.959261,	 221726.860355,	 457.594200,	 1.620864 
1.815000,	 0.210167,	 1.482509,	 719.534482,	 179.879839,	 520.966959,	 221736.248451,	 457.597580,	 1.620809 
1.845000,	 0.217630,	 1.482545,	 719.516543,	 179.875459,	 520.973765,	 221744.581756,	 457.600569,	 1.620758 
1.875000,	 0.225093,	 1.482577,	 719.499689,	 179.871350,	 520.979693,	 221751.899939,	 457.603173,	 1.620711 
1.905000,	 0.232556,	 1.482605,	 719.483964,	 179.867477,	 520.984717,	 221758.224637,	 457.605379,	 1.620668 
1.935000,	 0.240019,	 1.482635,	 719.467341,	 179.863338,	 520.990332,	 221765.115799,	 457.607845,	 1.620621 
1.965000,	 0.247481,	 1.482661,	 719.451771,	 179.859543,	 520.995104,	 221770.974519,	 457.609941,	 1.620579 
1.995000,	 0.253700,	 1.310019,	 759.335245,	 148.938926,	 497.341583,	 187051.702041,	 447.101385,	 1.730713 
2.025000,	 0.256188,	 0.988385,	 817.078317,	 73.888901,	 461.147368,	 130856.383922,	 430.525120,	 1.905609 
2.055000,	 0.256188,	 0.863919,	 845.238672,	 35.018065,	 440.311713,	 109209.968000,	 420.686667,	 2.010912 
2.085000,	 0.256188,	 0.812175,	 859.062552,	 15.786200,	 429.232079,	 100085.482610,	 415.360042,	 2.068585 
2.115000,	 0.256188,	 0.789567,	 865.968788,	 6.860494,	 423.475672,	 95994.623410,	 412.565456,	 2.099051 
2.145000,	 0.256188,	 0.778778,	 869.553465,	 2.998739,	 420.430200,	 94001.983457,	 411.079275,	 2.115306 
2.175000,	 0.256188,	 0.772743,	 871.562092,	 1.437208,	 418.706037,	 92891.003895,	 410.235501,	 2.124544 
2.205000,	 0.256188,	 0.768648,	 872.827558,	 0.838025,	 417.612063,	 92157.347473,	 409.699229,	 2.130412 
2.235000,	 0.256188,	 0.765427,	 873.733014,	 0.607767,	 416.824777,	 91598.104335,	 409.312863,	 2.134634 
2.265000,	 0.256188,	 0.762695,	 874.447662,	 0.505668,	 416.200359,	 91134.448575,	 409.006165,	 2.137982 
2.295000,	 0.256188,	 0.760315,	 875.044632,	 0.443509,	 415.676520,	 90735.718379,	 408.748692,	 2.140789 
2.325000,	 0.256188,	 0.758229,	 875.556675,	 0.393169,	 415.225367,	 90388.530793,	 408.526815,	 2.143205 
2.355000,	 0.256188,	 0.756400,	 876.000572,	 0.347627,	 414.832617,	 90085.210972,	 408.333562,	 2.145306 
2.385000,	 0.256188,	 0.754797,	 876.386945,	 0.306032,	 414.489226,	 89819.941993,	 408.164522,	 2.147142 
2.415000,	 0.256188,	 0.753393,	 876.723856,	 0.268678,	 414.188319,	 89587.700599,	 408.016337,	 2.148747 
2.445000,	 0.256188,	 0.752160,	 877.018006,	 0.235675,	 413.924173,	 89384.052379,	 407.886211,	 2.150154 
2.475000,	 0.256188,	 0.751076,	 877.275107,	 0.206793,	 413.691898,	 89205.138935,	 407.771752,	 2.151388 
2.505000,	 0.256188,	 0.750121,	 877.500022,	 0.181598,	 413.487330,	 89047.667196,	 407.670919,	 2.152472 
2.535000,	 0.256188,	 0.749278,	 877.696850,	 0.159582,	 413.306953,	 88908.869110,	 407.581990,	 2.153424 
2.565000,	 0.256188,	 0.748535,	 877.869023,	 0.140248,	 413.147824,	 88786.440453,	 407.503519,	 2.154261 
2.595000,	 0.256188,	 0.747878,	 878.019396,	 0.123154,	 413.007489,	 88678.471271,	 407.434305,	 2.154996 
2.625000,	 0.256188,	 0.747300,	 878.150348,	 0.107926,	 412.883906,	 88583.375919,	 407.373343,	 2.155640 
2.655000,	 0.256188,	 0.746792,	 878.263875,	 0.094261,	 412.775359,	 88499.826566,	 407.319790,	 2.156202 
2.685000,	 0.256188,	 0.746346,	 878.361677,	 0.081925,	 412.680384,	 88426.691643,	 407.272928,	 2.156691 
2.715000,	 0.256188,	 0.745958,	 878.445245,	 0.070749,	 412.597701,	 88362.979984,	 407.232125,	 2.157112 
2.745000,	 0.256188,	 0.745621,	 878.515928,	 0.060619,	 412.526145,	 88307.791273,	 407.196811,	 2.157473 
2.775000,	 0.256188,	 0.745331,	 878.575002,	 0.051473,	 412.464620,	 88260.273655,	 407.166445,	 2.157779 
2.805000,	 0.256188,	 0.745083,	 878.623715,	 0.043289,	 412.412046,	 88219.589807,	 407.140495,	 2.158036 
2.835000,	 0.256188,	 0.744870,	 878.663330,	 0.036076,	 412.367335,	 88184.892262,	 407.118424,	 2.158250 
2.865000,	 0.256188,	 0.744689,	 878.695147,	 0.029861,	 412.329364,	 88155.308980,	 407.099680,	 2.158428 
2.895000,	 0.256188,	 0.744533,	 878.720597,	 0.024671,	 412.296896,	 88129.933167,	 407.083652,	 2.158575 
2.925000,	 0.256188,	 0.744398,	 878.741328,	 0.020515,	 412.268512,	 88107.827300,	 407.069639,	 2.158700 
2.955000,	 0.256188,	 0.744277,	 878.758688,	 0.017418,	 412.243044,	 88088.076928,	 407.057065,	 2.158810 
2.985000,	 0.256188,	 0.744165,	 878.774024,	 0.015382,	 412.219330,	 88069.772218,	 407.045357,	 2.158909 
0.015000,	 0.022277,	 1.000000,	 1000.000000,	 -0.000000,	 300.000000,	 86129.212707,	 347.247603,	 2.879789 
0.045000,	 0.022277,	 1.000000,	 1000.000000,	 0.000000,	 300.000000,	 86129.212707,	 347.247603,	 2.879789 
0.075000,	 0.022277,	 1.000000,	 1000.000000,	 0.000000,	 300.000000,	 86129.212707,	 347.247603,	 2.879789 
0.105000,	 0.022277,	 1.000000,	 1000.000000,	 0.000000,	 300.000000,	 86129.212707,	 347.247603,	 2.879789 
0.135000,	 0.022277,	 1.000000,	 1000.000000,	 0.000000,	 300.000000,	 86129.212707,	 347.247603,	 2.879789 
0.165000,	 0.022277,	 1.000000,	 1000.000000,	 0.000000,	 300.000000,	 86129.212707,	 347.247603,	 2.879789 
0.195000,	 0.022277,	 1.000000,	 1000.000000,	 0.000000,	 300.000000,	 86129.212707,	 347.247603,	 2.879789 
0.225000,	 0.022277,	 1.000000,	 1000.000000,	 -0.000000,	 300.000000,	 86129.212707,	 347.247603,	 2.879789 
0.255000,	 0.022277,	 1.000000,	 1000.000000,	 -0.000000,	 300.000000,	 86129.212707,	 347.247603,	 2.879789 
0.285000,	 0.022277,	 1.000000,	 1000.000000,	 0.000000,	 300.000000,	 86129.212708,	 347.247603,	 2.879789 
0.315000,	 0.022277,	 1.000005,	 999.999341,	 0.002361,	 300.000655,	 86129.871054,	 347.247982,	 2.879784 
0.345000,	 0.022277,	 1.000013,	 999.998402,	 0.005481,	 300.001589,	 86130.808641,	 347.248523,	 2.879777 
0.375000,	 0.022277,	 1.000020,	 999.997631,	 0.007905,	 300.002356,	 86131.578254,	 347.248966,	 2.879771 
0.405000,	 0.022277,	 1.000024,	 999.997148,	 0.009343,	 300.002835,	 86132.059319,	 347.249244,	 2.879768 
0.435000,	 0.022277,	 1.000026,	 999.996890,	 0.010066,	 300.003091,	 86132.314859,	 347.249392,	 2.879766 
0.465000,	 0.022277,	 1.000027,	 999.996763,	 0.010402,	 300.003216,	 86132.439607,	 347.249464,	 2.879765 
0.495000,	 0.022277,	 1.000027,	 999.996700,	 0.010559,	 300.003278,	 86132.500070,	 347.249500,	 2.879764 
0.525000,	 0.022277,	 1.000027,	 999.996666,	 0.010639,	 300.003310,	 86132.530999,	 347.249518,	 2.879764 
0.555000,	 0.022277,	 1.000028,	 999.996646,	 0.010683,	 300.003328,	 86132.547847,	 347.249529,	 2.879764 
0.585000,	 0.022277,	 1.000028,	 999.996634,	 0.010709,	 300.003339,	 86132.557238,	 347.249535,	 2.879764 
0.615000,	 0.022277,	 1.000028,	 999.996625,	 0.010722,	 300.003346,	 86132.562357,	 347.249539,	 2.879764 
0.645000,	 0.022277,	 1.000028,	 999.996618,	 0.010729,	 300.003350,	 86132.565015,	 347.249542,	 2.879764 
0.675000,	 0.022277,	 1.000028,	 999.996612,	 0.010733,	 300.003353,	 86132.566328,	 347.249544,	 2.879764 
0.705000,	 0.022277,	 1.000028,	 999.996607,	 0.010734,	 300.003356,	 86132.566955,	 347.249545,	 2.879764 
0.735000,	 0.022277,	 1.000028,	 999.996602,	 0.010735,	 300.003359,	 86132.567258,	 347.249547,	 2.879764 
0.765000,	 0.022277,	 1.000028,	 999.996596,	 0.010735,	 300.003361,	 86132.567419,	 347.249548,	 2.879764 
0.795000,	 0.022277,	 1.000028,	 999.996590,	 0.010735,	 300.003364,	 86132.567523,	 347.249550,	 2.879764 
0.825000,	 0.022277,	 1.000028,	 999.996585,	 0.010735,	 300.003366,	 86132.567606,	 347.249551,	 2.879764 
0.855000,	 0.022277,	 1.000028,	 999.996578,	 0.010735,	 300.003369,	 86132.567684,	 347.249553,	 2.879763 
0.885000,	 0.022277,	 1.000028,	 999.996572,	 0.010735,	 300.003372,	 86132.567761,	 347.249554,	 2.879763 
0.915000,	 0.022277,	 1.000028,	 999.996565,	 0.010735,	 300.003375,	 86132.567840,	 347.249556,	 2.879763 
0.945000,	 0.022277,	 1.000028,	 999.996558,	 0.010735,	 300.003378,	 86132.567921,	 347.249558,	 2.879763 
0.975000,	 0.022277,	 1.000028,	 999.996471,	 0.010762,	 300.003385,	 86132.572078,	 347.249562,	 2.879763 
1.005000,	 0.024740,	 1.213137,	 918.557788,	 85.240616,	 373.896169,	 130223.758656,	 387.662808,	 2.379657 
1.035000,	 0.030897,	 1.525413,	 830.493999,	 164.725206,	 439.949434,	 192672.334347,	 420.513566,	 2.013425 
1.065000,	 0.038286,	 1.663067,	 805.340978,	 192.740969,	 455.190815,	 217336.424824,	 427.735577,	 1.935972 
1.095000,	 0.045674,	 1.704678,	 798.567815,	 201.271769,	 458.858160,	 224569.104823,	 429.455193,	 1.917643 
1.125000,	 0.053063,	 1.708865,	 797.510185,	 202.782915,	 459.384236,	 225378.806307,	 429.701306,	 1.915021 
1.155000,	 0.060452,	 1.702741,	 798.052654,	 202.242927,	 459.067612,	 224416.320044,	 429.553197,	 1.916597 
1.185000,	 0.067840,	 1.695496,	 798.541858,	 201.334102,	 458.864530,	 223362.558258,	 429.458174,	 1.917606 
1.215000,	 0.075229,	 1.689809,	 798.784383,	 200.611628,	 458.816531,	 222590.070880,	 429.435712,	 1.917844 
1.245000,	 0.082618,	 1.685938,	 798.842856,	 200.140412,	 458.862623,	 222102.581139,	 429.457282,	 1.917613 
1.275000,	 0.090006,	 1.683353,	 798.736982,	 199.843331,	 459.002838,	 221829.749589,	 429.522892,	 1.916913 
1.305000,	 0.097395,	 1.681525,	 798.516223,	 199.644431,	 459.213466,	 221690.540029,	 429.621430,	 1.915862 
1.335000,	 0.104783,	 1.680137,	 798.233844,	 199.503065,	 459.460852,	 221626.905715,	 429.737137,	 1.914629 
1.365000,	 0.112172,	 1.678991,	 797.911941,	 199.390553,	 459.733312,	 221606.982809,	 429.864535,	 1.913272 
1.395000,	 0.119561,	 1.677957,	 797.570195,	 199.291201,	 460.018529,	 221607.983699,	 429.997857,	 1.911851 
1.425000,	 0.126949,	 1.676966,	 797.213527,	 199.194867,	 460.314616,	 221619.640197,	 430.136217,	 1.910378 
1.455000,	 0.134338,	 1.676008,	 796.856830,	 199.103918,	 460.609512,	 221634.945884,	 430.273977,	 1.908910 
1.485000,	 0.141727,	 1.675062,	 796.497336,	 199.013597,	 460.906290,	 221652.493896,	 430.412570,	 1.907435 
1.515000,	 0.149115,	 1.674114,	 796.136836,	 198.924081,	 461.203520,	 221669.965913,	 430.551331,	 1.905957 
1.545000,	 0.156504,	 1.673153,	 795.770694,	 198.832430,	 461.505367,	 221687.678580,	 430.692201,	 1.904457 
1.575000,	 0.163892,	 1.672196,	 795.409271,	 198.743880,	 461.802771,	 221703.763501,	 430.830952,	 1.902980 
1.605000,	 0.171281,	 1.671237,	 795.047498,	 198.654876,	 462.100358,	 221719.312065,	 430.969744,	 1.901503 
1.635000,	 0.178670,	 1.670269,	 794.685960,	 198.566000,	 462.397558,	 221733.459214,	 431.108311,	 1.900028 
1.665000,	 0.186058,	 1.669284,	 794.319376,	 198.474695,	 462.698957,	 221747.144188,	 431.248790,	 1.898533 
1.695000,	 0.193447,	 1.668303,	 793.957840,	 198.386265,	 462.995709,	 221758.951318,	 431.387058,	 1.897062 
1.725000,	 0.200836,	 1.667319,	 793.596021,	 198.297204,	 463.292622,	 221770.245808,	 431.525358,	 1.895591 
1.755000,	 0.208224,	 1.666328,	 793.234388,	 198.208151,	 463.589209,	 221780.305513,	 431.663461,	 1.894121 
1.785000,	 0.215613,	 1.665321,	 792.867543,	 198.116594,	 463.890125,	 221790.145998,	 431.803535,	 1.892631 
1.815000,	 0.223001,	 1.664319,	 792.505639,	 198.027858,	 464.186494,	 221798.380048,	 431.941447,	 1.891164 
1.845000,	 0.230390,	 1.663316,	 792.143282,	 197.938439,	 464.483164,	 221806.385268,	 432.079456,	 1.889696 
1.875000,	 0.237779,	 1.662308,	 791.780949,	 197.848997,	 464.779636,	 221813.426369,	 432.217329,	 1.888230 
1.905000,	 0.245167,	 1.661285,	 791.413197,	 197.757030,	 465.080586,	 221820.505559,	 432.357239,	 1.886742 
1.935000,	 0.252556,	 1.660270,	 791.050285,	 197.667867,	 465.377079,	 221826.209549,	 432.495033,	 1.885277 
1.965000,	 0.259944,	 1.659253,	 790.687000,	 197.578123,	 465.673796,	 221831.660596,	 432.632887,	 1.883811 
1.995000,	 0.266101,	 1.524909,	 806.869112,	 173.942073,	 457.316921,	 200212.101306,	 428.733347,	 1.925218 
2.025000,	 0.268564,	 1.247735,	 837.538644,	 117.422361,	 440.659650,	 157853.786557,	 420.852849,	 2.009562 
2.055000,	 0.268564,	 1.066135,	 862.565306,	 72.727332,	 423.933836,	 129759.659930,	 412.788576,	 2.097020 
2.085000,	 0.268564,	 0.958048,	 879.477503,	 42.636365,	 411.144067,	 113086.492614,	 406.514127,	 2.166002 
2.115000,	 0.268564,	 0.895798,	 890.190092,	 24.054354,	 402.413948,	 103493.288196,	 402.175066,	 2.214247 
2.145000,	 0.268564,	 0.860606,	 896.756780,	 13.323726,	 396.825521,	 98046.748750,	 399.372748,	 2.245661 
2.175000,	 0.268564,	 0.840783,	 900.710526,	 7.471486,	 393.379548,	 94956.536477,	 397.634921,	 2.265248 
2.205000,	 0.268564,	 0.829374,	 903.089398,	 4.417562,	 391.279897,	 93168.043635,	 396.572319,	 2.277265 
2.235000,	 0.268564,	 0.822437,	 904.555990,	 2.858792,	 389.976894,	 92081.174900,	 395.911455,	 2.284755 
2.265000,	 0.268564,	 0.817850,	 905.509365,	 2.052344,	 389.126827,	 91368.038599,	 395.479718,	 2.289654 
2.295000,	 0.268564,	 0.814521,	 906.176512,	 1.607847,	 388.530718,	 90856.702788,	 395.176681,	 2.293096 
2.325000,	 0.268564,	 0.811907,	 906.680296,	 1.333907,	 388.079962,	 90460.019465,	 394.947381,	 2.295701 
2.355000,	 0.268564,	 0.809742,	 907.084999,	 1.141997,	 387.717511,	 90134.540943,	 394.762906,	 2.297799 
2.385000,	 0.268564,	 0.807893,	 907.423965,	 0.992953,	 387.413716,	 89858.288021,	 394.608218,	 2.299558 
2.415000,	 0.268564,	 0.806289,	 907.714991,	 0.869772,	 387.152735,	 89619.451260,	 394.475282,	 2.301070 
2.445000,	 0.268564,	 0.804886,	 907.968291,	 0.764798,	 386.925475,	 89410.970937,	 394.359486,	 2.302388 
2.475000,	 0.268564,	 0.803653,	 908.190372,	 0.674106,	 386.726139,	 89228.065742,	 394.257890,	 2.303545 
2.505000,	 0.268564,	 0.802568,	 908.385850,	 0.595214,	 386.550615,	 89067.149082,	 394.168408,	 2.304563 
2.535000,	 0.268564,	 0.801612,	 908.558270,	 0.526236,	 386.395743,	 88925.359592,	 394.089438,	 2.305463 
2.565000,	 0.268564,	 0.800768,	 908.710483,	 0.465595,	 386.258979,	 88800.347207,	 394.019688,	 2.306257 
2.595000,	 0.268564,	 0.800025,	 908.844838,	 0.411943,	 386.138223,	 88690.158949,	 393.958093,	 2.306958 
2.625000,	 0.268564,	 0.799370,	 908.963298,	 0.364146,	 386.031727,	 88593.161372,	 393.903762,	 2.307577 
2.655000,	 0.268564,	 0.798796,	 909.067514,	 0.321278,	 385.938010,	 88507.976427,	 393.855946,	 2.308122 
2.685000,	 0.268564,	 0.798293,	 909.158906,	 0.282614,	 385.855805,	 88433.423387,	 393.813998,	 2.308600 
2.715000,	 0.268564,	 0.797855,	 909.238719,	 0.247619,	 385.783999,	 88368.465459,	 393.777352,	 2.309017 
2.745000,	 0.268564,	 0.797476,	 909.308082,	 0.215933,	 385.721579,	 88312.161803,	 393.745494,	 2.309380 
2.775000,	 0.268564,	 0.797149,	 909.368057,	 0.187349,	 385.667594,	 88263.626021,	 393.717939,	 2.309694 
2.805000,	 0.268564,	 0.796869,	 909.419679,	 0.161787,	 385.621117,	 88221.993075,	 393.694215,	 2.309965 
2.835000,	 0.268564,	 0.796630,	 909.463983,	 0.139260,	 385.581218,	 88186.394789,	 393.673847,	 2.310197 
2.865000,	 0.268564,	 0.796425,	 909.502024,	 0.119843,	 385.546949,	 88155.945888,	 393.656353,	 2.310396 
2.895000,	 0.268564,	 0.796250,	 909.534812,	 0.103628,	 385.517406,	 88129.743507,	 393.641270,	 2.310568 
2.925000,	 0.268564,	 0.796096,	 909.563229,	 0.090679,	 385.491790,	 88106.873666,	 393.628192,	 2.310717 
2.955000,	 0.268564,	 0.795958,	 909.588408,	 0.081042,	 385.469086,	 88086.402514,	 393.616601,	 2.310849 
2.985000,	 0.268564,	 0.795829,	 909.611448,	 0.074694,	 385.448305,	 88067.423594,	 393.605990,	 2.310970 
0.015000,	 0.037129,	 1.000000,	 1000.000000,	 -0.000000,	 300.000000,	 86129.212707,	 347.247603,	 2.879789 
0.045000,	 0.037129,	 1.000000,	 1000.000000,	 0.000000,	 300.000000,	 86129.212707,	 347.247603,	 2.879789 
0.075000,	 0.037129,	 1.000000,	 1000.000000,	 0.000000,	 300.000000,	 86129.212707,	 347.247603,	 2.879789 
0.105000,	 0.037129,	 1.000000,	 1000.000000,	 0.000000,	 300.000000,	 86129.212707,	 347.247603,	 2.879789 
0.135000,	 0.037129,	 1.000000,	 1000.000000,	 0.000000,	 300.000000,	 86129.212707,	 347.247603,	 2.879789 
0.165000,	 0.037129,	 1.000000,	 1000.000000,	 0.000000,	 300.000000,	 86129.212707,	 347.247603,	 2.879789 
0.195000,	 0.037129,	 1.000000,	 1000.000000,	 0.000000,	 300.000000,	 86129.212707,	 347.247603,	 2.879789 
0.225000,	 0.037129,	 1.000000,	 1000.000000,	 -0.000000,	 300.000000,	 86129.212707,	 347.247603,	 2.879789 
0.255000,	 0.037129,	 1.000000,	 1000.000000,	 -0.000000,	 300.000000,	 86129.212707,	 347.247603,	 2.879789 
0.285000,	 0.037129,	 1.000000,	 1000.000000,	 0.000000,	 300.000000,	 86129.212707,	 347.247603,	 2.879789 
0.315000,	 0.037129,	 1.000003,	 999.999682,	 0.000891,	 300.000316,	 86129.530662,	 347.247786,	 2.879787 
0.345000,	 0.037129,	 1.000008,	 999.999057,	 0.002619,	 300.000938,	 86130.155933,	 347.248146,	 2.879782 
0.375000,	 0.037129,	 1.000014,	 999.998336,	 0.004579,	 300.001656,	 86130.876644,	 347.248561,	 2.879777 
0.405000,	 0.037129,	 1.000019,	 999.997696,	 0.006290,	 300.002293,	 86131.516887,	 347.248930,	 2.879772 
0.435000,	 0.037129,	 1.000023,	 999.997208,	 0.007573,	 300.002778,	 86132.005052,	 347.249211,	 2.879768 
0.465000,	 0.037129,	 1.000026,	 999.996869,	 0.008448,	 300.003115,	 86132.343917,	 347.249406,	 2.879766 
0.495000,	 0.037129,	 1.000028,	 999.996647,	 0.009014,	 300.003337,	 86132.566189,	 347.249534,	 2.879764 
0.525000,	 0.037129,	 1.000029,	 999.996506,	 0.009368,	 300.003477,	 86132.707212,	 347.249615,	 2.879763 
0.555000,	 0.037129,	 1.000030,	 999.996418,	 0.009586,	 300.003564,	 86132.794853,	 347.249666,	 2.879762 
0.585000,	 0.037129,	 1.000030,	 999.996364,	 0.009719,	 300.003617,	 86132.848447,	 347.249697,	 2.879762 
0.615000,	 0.037129,	 1.000030,	 999.996332,	 0.009798,	 300.003649,	 86132.880689,	 347.249715,	 2.879761 
0.645000,	 0.037129,	 1.000031,	 999.996313,	 0.009844,	 300.003668,	 86132.899738,	 347.249726,	 2.879761 
0.675000,	 0.037129,	 1.000031,	 999.996302,	 0.009871,	 300.003679,	 86132.910771,	 347.249732,	 2.879761 
0.705000,	 0.037129,	 1.000031,	 999.996296,	 0.009886,	 300.003686,	 86132.917034,	 347.249736,	 2.879761 
0.735000,	 0.037129,	 1.000031,	 999.996292,	 0.009895,	 300.003689,	 86132.920518,	 347.249738,	 2.879761 
0.765000,	 0.037129,	 1.000031,	 999.996290,	 0.009899,	 300.003691,	 86132.922420,	 347.249739,	 2.879761 
0.795000,	 0.037129,	 1.000031,	 999.996289,	 0.009902,	 300.003692,	 86132.923442,	 347.249740,	 2.879761 
0.825000,	 0.037129,	 1.000031,	 999.996289,	 0.009903,	 300.003692,	 86132.923984,	 347.249740,	 2.879761 
0.855000,	 0.037129,	 1.000031,	 999.996289,	 0.009904,	 300.003693,	 86132.924271,	 347.249740,	 2.879761 
0.885000,	 0.037129,	 1.000031,	 999.996288,	 0.009904,	 300.003693,	 86132.924427,	 347.249740,	 2.879761 
0.915000,	 0.037129,	 1.000031,	 999.996288,	 0.009904,	 300.003693,	 86132.924518,	 347.249740,	 2.879761 
0.945000,	 0.037129,	 1.000031,	 999.996288,	 0.009904,	 300.003693,	 86132.924577,	 347.249740,	 2.879761 
0.975000,	 0.037129,	 1.000031,	 999.996261,	 0.009928,	 300.003698,	 86132.929104,	 347.249743,	 2.879761 
1.005000,	 0.039567,	 1.112017,	 974.925019,	 42.862394,	 323.703019,	 103344.543991,	 360.704869,	 2.705444 
1.035000,	 0.045662,	 1.360171,	 917.870897,	 118.206273,	 371.215586,	 144960.203829,	 386.270668,	 2.395862 
1.065000,	 0.052976,	 1.586981,	 876.503269,	 168.619491,	 400.723346,	 182576.822662,	 401.329378,	 2.224047 
1.095000,	 0.060291,	 1.726558,	 854.611117,	 194.120350,	 414.828749,	 205626.569052,	 408.331658,	 2.146247 
1.125000,	 0.067605,	 1.793709,	 844.370814,	 205.421706,	 421.163217,	 216886.046334,	 411.437475,	 2.112106 
1.155000,	 0.074919,	 1.818907,	 840.080649,	 209.636814,	 423.854477,	 221338.320934,	 412.749938,	 2.097741 
1.185000,	 0.082234,	 1.824805,	 838.590529,	 210.732297,	 424.856892,	 222581.094917,	 413.237726,	 2.092411 
1.215000,	 0.089548,	 1.823537,	 838.180999,	 210.674481,	 425.205924,	 222609.183861,	 413.407435,	 2.090557 
1.245000,	 0.096863,	 1.820344,	 838.032484,	 210.299052,	 425.405565,	 222323.710840,	 413.504474,	 2.089497 
1.275000,	 0.104177,	 1.817180,	 837.888380,	 209.920178,	 425.602121,	 222039.889653,	 413.599991,	 2.088454 
1.305000,	 0.111491,	 1.814565,	 837.688043,	 209.620762,	 425.828434,	 221838.193525,	 413.709942,	 2.087253 
1.335000,	 0.118806,	 1.812468,	 837.424814,	 209.397196,	 426.090753,	 221718.372798,	 413.837349,	 2.085862 
1.365000,	 0.126120,	 1.810755,	 837.115602,	 209.230120,	 426.379152,	 221658.750461,	 413.977378,	 2.084334 
1.395000,	 0.133435,	 1.809260,	 836.771868,	 209.095969,	 426.689027,	 221636.752406,	 414.127782,	 2.082693 
1.425000,	 0.140749,	 1.807895,	 836.411900,	 208.981729,	 427.008003,	 221635.031801,	 414.282546,	 2.081005 
1.455000,	 0.148063,	 1.806585,	 836.039004,	 208.876673,	 427.335550,	 221644.337398,	 414.441408,	 2.079273 
1.485000,	 0.155378,	 1.805311,	 835.662809,	 208.777965,	 427.664337,	 221658.416077,	 414.600811,	 2.077536 
1.515000,	 0.162692,	 1.804037,	 835.280325,	 208.680829,	 427.997791,	 221674.686039,	 414.762414,	 2.075775 
1.545000,	 0.170006,	 1.802768,	 834.898219,	 208.585887,	 428.330312,	 221690.866929,	 414.923501,	 2.074020 
1.575000,	 0.177320,	 1.801486,	 834.511230,	 208.490358,	 428.666779,	 221707.214001,	 415.086437,	 2.072246 
1.605000,	 0.184635,	 1.800202,	 834.125247,	 208.396064,	 429.001993,	 221722.487548,	 415.248702,	 2.070479 
1.635000,	 0.191949,	 1.798900,	 833.734992,	 208.300310,	 429.340823,	 221737.179584,	 415.412654,	 2.068695 
1.665000,	 0.199264,	 1.797594,	 833.346324,	 208.205416,	 429.677998,	 221750.169308,	 415.575740,	 2.066920 
1.695000,	 0.206578,	 1.796270,	 832.953185,	 208.108983,	 430.018961,	 221762.730736,	 415.740594,	 2.065127 
1.725000,	 0.213892,	 1.794944,	 832.561272,	 208.013265,	 430.358593,	 221774.031101,	 415.904739,	 2.063342 
1.755000,	 0.221207,	 1.793601,	 832.165028,	 207.915750,	 430.701944,	 221784.803361,	 416.070616,	 2.061539 
1.785000,	 0.228521,	 1.792253,	 831.770332,	 207.818947,	 431.043700,	 221794.033861,	 416.235656,	 2.059745 
1.815000,	 0.235836,	 1.790890,	 831.370951,	 207.720471,	 431.389429,	 221803.083165,	 416.402548,	 2.057931 
1.845000,	 0.243150,	 1.789526,	 830.972685,	 207.622674,	 431.733921,	 221811.117807,	 416.568777,	 2.056126 
1.875000,	 0.250464,	 1.788145,	 830.569855,	 207.523027,	 432.082316,	 221818.884035,	 416.736822,	 2.054301 
1.905000,	 0.257779,	 1.786763,	 830.168456,	 207.424109,	 432.429203,	 221825.347457,	 416.904072,	 2.052485 
1.935000,	 0.265093,	 1.785366,	 829.762141,	 207.323485,	 432.780243,	 221831.870880,	 417.073256,	 2.050649 
1.965000,	 0.272407,	 1.783961,	 829.354021,	 207.222447,	 433.132640,	 221837.818960,	 417.243025,	 2.048807 
1.995000,	 0.278502,	 1.687705,	 837.064400,	 191.561619,	 429.886204,	 208295.246518,	 415.676414,	 2.065799 
2.025000,	 0.280940,	 1.453999,	 854.984449,	 149.977856,	 421.952364,	 176139.493261,	 411.822757,	 2.107798 
2.055000,	 0.280940,	 1.257131,	 875.293591,	 108.655715,	 409.912834,	 147945.343026,	 405.904987,	 2.172952 
2.085000,	 0.280940,	 1.115850,	 892.195801,	 74.624769,	 398.260333,	 127585.730024,	 400.094108,	 2.237752 
2.115000,	 0.280940,	 1.020608,	 904.774435,	 49.179916,	 388.659224,	 113882.577625,	 395.242028,	 2.292545 
2.145000,	 0.280940,	 0.958614,	 913.594794,	 31.402767,	 381.443944,	 104979.340919,	 391.556097,	 2.334619 
2.175000,	 0.280940,	 0.919278,	 919.535570,	 19.665545,	 376.357199,	 99329.082146,	 388.936537,	 2.364771 