TITLE = "Final State"
VARIABLES = "X", "Y", "rho", "u", "v", "e", "p", "c", "M"
ZONE I=100, J=100, DATAPACKING=POINT
0.015000,	 0.000037,	 1.000726,	 0.974311,	 -0.005296,	 179.084198,	 71.495721,	 10.001067,	 0.097422 
0.045000,	 0.000037,	 1.000777,	 0.968809,	 -0.005653,	 179.081343,	 71.500317,	 10.001137,	 0.096872 
0.075000,	 0.000037,	 1.000772,	 0.963841,	 -0.005710,	 179.076946,	 71.500119,	 10.001148,	 0.096375 
0.105000,	 0.000037,	 1.000758,	 0.958635,	 -0.005751,	 179.072251,	 71.499266,	 10.001157,	 0.095854 
0.135000,	 0.000037,	 1.000744,	 0.952908,	 -0.005830,	 179.067358,	 71.498489,	 10.001173,	 0.095281 
0.165000,	 0.000037,	 1.000731,	 0.946486,	 -0.005962,	 179.062225,	 71.497961,	 10.001200,	 0.094639 
0.195000,	 0.000037,	 1.000720,	 0.939220,	 -0.006155,	 179.056785,	 71.497718,	 10.001240,	 0.093912 
0.225000,	 0.000037,	 1.000710,	 0.930955,	 -0.006418,	 179.050976,	 71.497761,	 10.001293,	 0.093086 
0.255000,	 0.000037,	 1.000700,	 0.921512,	 -0.006763,	 179.044740,	 71.498078,	 10.001363,	 0.092141 
0.285000,	 0.000037,	 1.000690,	 0.910678,	 -0.007206,	 179.038034,	 71.498651,	 10.001453,	 0.091057 
0.315000,	 0.000037,	 1.000679,	 0.898187,	 -0.007770,	 179.030830,	 71.499462,	 10.001568,	 0.089808 
0.345000,	 0.000037,	 1.000664,	 0.883702,	 -0.008487,	 179.023127,	 71.500484,	 10.001713,	 0.088359 
0.375000,	 0.000037,	 1.000643,	 0.866785,	 -0.009403,	 179.014966,	 71.501682,	 10.001899,	 0.086667 
0.405000,	 0.000037,	 1.000614,	 0.846856,	 -0.010583,	 179.006449,	 71.503001,	 10.002138,	 0.084674 
0.435000,	 0.000037,	 1.000571,	 0.823116,	 -0.012120,	 178.997769,	 71.504351,	 10.002450,	 0.082300 
0.465000,	 0.000037,	 1.000506,	 0.794425,	 -0.014144,	 178.989241,	 71.505572,	 10.002860,	 0.079432 
0.495000,	 0.000037,	 1.000407,	 0.759073,	 -0.016841,	 178.981342,	 71.506363,	 10.003406,	 0.075900 
0.525000,	 0.000037,	 1.000256,	 0.714299,	 -0.020467,	 178.974699,	 71.506072,	 10.004142,	 0.071430 
0.555000,	 0.000037,	 1.000014,	 0.655153,	 -0.025369,	 178.969901,	 71.503018,	 10.005138,	 0.065531 
0.585000,	 0.000037,	 0.999585,	 0.571065,	 -0.031885,	 178.966232,	 71.491416,	 10.006473,	 0.057158 
0.615000,	 0.000037,	 0.998563,	 0.430153,	 -0.039066,	 178.952404,	 71.440854,	 10.008052,	 0.043158 
0.645000,	 0.000037,	 1.000648,	 0.039002,	 0.000235,	 179.077915,	 71.677282,	 10.014150,	 0.003895 
0.675000,	 0.000037,	 0.998876,	 0.027036,	 0.000022,	 179.012708,	 71.524480,	 10.012338,	 0.002700 
0.705000,	 0.000037,	 0.998483,	 0.022643,	 0.000010,	 179.000591,	 71.491511,	 10.012002,	 0.002262 
0.735000,	 0.000037,	 0.998283,	 0.020174,	 0.000007,	 178.995257,	 71.475076,	 10.011854,	 0.002015 
0.765000,	 0.000037,	 0.998153,	 0.018514,	 0.000006,	 178.992162,	 71.464578,	 10.011769,	 0.001849 
0.795000,	 0.000037,	 0.998060,	 0.017288,	 0.000005,	 178.990102,	 71.457056,	 10.011712,	 0.001727 
0.825000,	 0.000037,	 0.997987,	 0.016328,	 0.000004,	 178.988612,	 71.451301,	 10.011671,	 0.001631 
0.855000,	 0.000037,	 0.997930,	 0.015546,	 0.000004,	 178.987474,	 71.446710,	 10.011639,	 0.001553 
0.885000,	 0.000037,	 0.997882,	 0.014891,	 0.000003,	 178.986569,	 71.442941,	 10.011614,	 0.001487 
0.915000,	 0.000037,	 0.997842,	 0.014329,	 0.000003,	 178.985831,	 71.439787,	 10.011594,	 0.001431 
0.945000,	 0.000037,	 0.997808,	 0.013841,	 0.000003,	 178.985214,	 71.437107,	 10.011577,	 0.001382 
0.975000,	 0.000037,	 0.997779,	 0.013409,	 0.000003,	 178.984692,	 71.434808,	 10.011562,	 0.001339 
1.005000,	 0.000037,	 0.997753,	 0.013024,	 0.000002,	 178.984245,	 71.432818,	 10.011550,	 0.001301 
1.035000,	 0.000037,	 0.997731,	 0.012677,	 0.000002,	 178.983858,	 71.431087,	 10.011539,	 0.001266 
1.065000,	 0.000037,	 0.997712,	 0.012362,	 0.000002,	 178.983520,	 71.429573,	 10.011530,	 0.001235 
1.095000,	 0.000037,	 0.997695,	 0.012074,	 0.000002,	 178.983225,	 71.428247,	 10.011522,	 0.001206 
1.125000,	 0.000037,	 0.997680,	 0.011810,	 0.000002,	 178.982964,	 71.427080,	 10.011514,	 0.001180 
1.155000,	 0.000037,	 0.997667,	 0.011566,	 0.000002,	 178.982733,	 71.426053,	 10.011508,	 0.001155 
1.185000,	 0.000037,	 0.997656,	 0.011340,	 0.000002,	 178.982527,	 71.425148,	 10.011502,	 0.001133 
1.215000,	 0.000037,	 0.997646,	 0.011130,	 0.000002,	 178.982342,	 71.424348,	 10.011497,	 0.001112 
1.245000,	 0.000037,	 0.997637,	 0.010934,	 0.000002,	 178.982175,	 71.423641,	 10.011493,	 0.001092 
1.275000,	 0.000037,	 0.997629,	 0.010751,	 0.000002,	 178.982022,	 71.423016,	 10.011488,	 0.001074 
1.305000,	 0.000037,	 0.997622,	 0.010579,	 0.000001,	 178.981881,	 71.422461,	 10.011485,	 0.001057 
1.335000,	 0.000037,	 0.997616,	 0.010418,	 0.000001,	 178.981749,	 71.421968,	 10.011481,	 0.001041 
1.365000,	 0.000037,	 0.997610,	 0.010266,	 0.000001,	 178.981625,	 71.421528,	 10.011477,	 0.001025 
1.395000,	 0.000037,	 0.997605,	 0.010123,	 0.000001,	 178.981504,	 71.421135,	 10.011474,	 0.001011 
1.425000,	 0.000037,	 0.997601,	 0.009988,	 0.000001,	 178.981387,	 71.420782,	 10.011471,	 0.000998 
1.455000,	 0.000037,	 0.997597,	 0.009860,	 0.000001,	 178.981270,	 71.420462,	 10.011468,	 0.000985 
1.485000,	 0.000037,	 0.997594,	 0.009740,	 0.000001,	 178.981152,	 71.420170,	 10.011464,	 0.000973 
1.515000,	 0.000037,	 0.997591,	 0.009625,	 0.000001,	 178.981031,	 71.419902,	 10.011461,	 0.000961 
1.545000,	 0.000037,	 0.997588,	 0.009517,	 0.000001,	 178.980905,	 71.419653,	 10.011458,	 0.000951 
1.575000,	 0.000037,	 0.997585,	 0.009415,	 0.000001,	 178.980773,	 71.419418,	 10.011454,	 0.000940 
1.605000,	 0.000037,	 0.997583,	 0.009317,	 0.000001,	 178.980633,	 71.419194,	 10.011450,	 0.000931 
1.635000,	 0.000037,	 0.997581,	 0.009225,	 0.000001,	 178.980484,	 71.418978,	 10.011446,	 0.000921 
1.665000,	 0.000037,	 0.997579,	 0.009138,	 0.000001,	 178.980324,	 71.418766,	 10.011441,	 0.000913 
1.695000,	 0.000037,	 0.997577,	 0.009054,	 0.000001,	 178.980152,	 71.418555,	 10.011437,	 0.000904 
1.725000,	 0.000037,	 0.997575,	 0.008976,	 0.000001,	 178.979967,	 71.418344,	 10.011431,	 0.000897 
1.755000,	 0.000037,	 0.997573,	 0.008901,	 0.000001,	 178.979768,	 71.418129,	 10.011426,	 0.000889 
1.785000,	 0.000037,	 0.997571,	 0.008829,	 0.000001,	 178.979553,	 71.417908,	 10.011420,	 0.000882 
1.815000,	 0.000037,	 0.997569,	 0.008762,	 0.000001,	 178.979322,	 71.417680,	 10.011413,	 0.000875 
1.845000,	 0.000037,	 0.997567,	 0.008698,	 0.000001,	 178.979073,	 71.417442,	 10.011406,	 0.000869 
1.875000,	 0.000037,	 0.997565,	 0.008637,	 0.000001,	 178.978805,	 71.417194,	 10.011399,	 0.000863 
1.905000,	 0.000037,	 0.997563,	 0.008579,	 0.000001,	 178.978518,	 71.416932,	 10.011391,	 0.000857 
1.935000,	 0.000037,	 0.997561,	 0.008524,	 0.000001,	 178.978210,	 71.416657,	 10.011382,	 0.000851 
1.965000,	 0.000037,	 0.997559,	 0.008472,	 0.000001,	 178.977882,	 71.416367,	 10.011373,	 0.000846 
1.995000,	 0.000037,	 0.997556,	 0.008423,	 0.000001,	 178.977531,	 71.416060,	 10.011363,	 0.000841 
2.025000,	 0.000037,	 0.997554,	 0.008376,	 0.000001,	 178.977159,	 71.415736,	 10.011353,	 0.000837 
2.055000,	 0.000037,	 0.997551,	 0.008332,	 0.000001,	 178.976764,	 71.415393,	 10.011342,	 0.000832 
2.085000,	 0.000037,	 0.997549,	 0.008290,	 0.000001,	 178.976346,	 71.415032,	 10.011330,	 0.000828 
2.115000,	 0.000037,	 0.997546,	 0.008251,	 0.000001,	 178.975904,	 71.414651,	 10.011318,	 0.000824 
2.145000,	 0.000037,	 0.997543,	 0.008213,	 0.000001,	 178.975439,	 71.414249,	 10.011305,	 0.000820 
2.175000,	 0.000037,	 0.997540,	 0.008178,	 0.000001,	 178.974949,	 71.413826,	 10.011291,	 0.000817 
2.205000,	 0.000037,	 0.997536,	 0.008145,	 0.000001,	 178.974436,	 71.413381,	 10.011277,	 0.000814 
2.235000,	 0.000037,	 0.997533,	 0.008114,	 0.000001,	 178.973900,	 71.412914,	 10.011262,	 0.000810 
2.265000,	 0.000037,	 0.997529,	 0.008085,	 0.000001,	 178.973339,	 71.412424,	 10.011246,	 0.000808 
2.295000,	 0.000037,	 0.997525,	 0.008057,	 0.000001,	 178.972755,	 71.411911,	 10.011230,	 0.000805 
2.325000,	 0.000037,	 0.997521,	 0.008032,	 0.000001,	 178.972149,	 71.411374,	 10.011213,	 0.000802 
2.355000,	 0.000037,	 0.997517,	 0.008008,	 0.000001,	 178.971520,	 71.410814,	 10.011195,	 0.000800 
2.385000,	 0.000037,	 0.997512,	 0.007986,	 0.000001,	 178.970870,	 71.410229,	 10.011177,	 0.000798 
2.415000,	 0.000037,	 0.997507,	 0.007965,	 0.000001,	 178.970198,	 71.409620,	 10.011158,	 0.000796 
2.445000,	 0.000037,	 0.997502,	 0.007946,	 0.000001,	 178.969507,	 71.408985,	 10.011139,	 0.000794 
2.475000,	 0.000037,	 0.997497,	 0.007928,	 0.000001,	 178.968797,	 71.408326,	 10.011119,	 0.000792 
2.505000,	 0.000037,	 0.997492,	 0.007912,	 0.000001,	 178.968070,	 71.407641,	 10.011099,	 0.000790 
2.535000,	 0.000037,	 0.997486,	 0.007898,	 0.000001,	 178.967326,	 71.406930,	 10.011078,	 0.000789 
2.565000,	 0.000037,	 0.997480,	 0.007885,	 0.000001,	 178.966569,	 71.406193,	 10.011057,	 0.000788 
2.595000,	 0.000037,	 0.997473,	 0.007873,	 0.000001,	 178.965798,	 71.405429,	 10.011035,	 0.000786 
2.625000,	 0.000037,	 0.997467,	 0.007862,	 0.000001,	 178.965018,	 71.404637,	 10.011014,	 0.000785 
2.655000,	 0.000037,	 0.997460,	 0.007853,	 0.000001,	 178.964229,	 71.403817,	 10.010992,	 0.000784 
2.685000,	 0.000037,	 0.997452,	 0.007845,	 0.000001,	 178.963435,	 71.402967,	 10.010969,	 0.000784 
2.715000,	 0.000037,	 0.997444,	 0.007838,	 0.000001,	 178.962638,	 71.402085,	 10.010947,	 0.000783 
2.745000,	 0.000037,	 0.997436,	 0.007833,	 0.000001,	 178.961840,	 71.401169,	 10.010925,	 0.000782 
2.775000,	 0.000037,	 0.997427,	 0.007828,	 0.000001,	 178.961044,	 71.400215,	 10.010902,	 0.000782 
2.805000,	 0.000037,	 0.997417,	 0.007825,	 0.000001,	 178.960253,	 71.399218,	 10.010880,	 0.000782 
2.835000,	 0.000037,	 0.997407,	 0.007822,	 0.000001,	 178.959468,	 71.398172,	 10.010858,	 0.000781 
2.865000,	 0.000037,	 0.997396,	 0.007820,	 0.000001,	 178.958691,	 71.397066,	 10.010837,	 0.000781 
2.895000,	 0.000037,	 0.997384,	 0.007819,	 0.000001,	 178.957923,	 71.395891,	 10.010815,	 0.000781 
2.925000,	 0.000037,	 0.997371,	 0.007817,	 0.000001,	 178.957165,	 71.394636,	 10.010794,	 0.000781 
2.955000,	 0.000037,	 0.997356,	 0.007814,	 0.000001,	 178.956426,	 71.393302,	 10.010773,	 0.000781 
2.985000,	 0.000037,	 0.997341,	 0.007808,	 0.000001,	 178.955734,	 71.391937,	 10.010754,	 0.000780 
0.015000,	 0.000186,	 1.000730,	 0.975001,	 -0.005264,	 179.085009,	 71.496008,	 10.001071,	 0.097491 
0.045000,	 0.000186,	 1.000779,	 0.969553,	 -0.005630,	 179.082150,	 71.500493,	 10.001139,	 0.096946 
0.075000,	 0.000186,	 1.000774,	 0.964580,	 -0.005686,	 179.077742,	 71.500293,	 10.001150,	 0.096449 
0.105000,	 0.000186,	 1.000760,	 0.959358,	 -0.005726,	 179.073036,	 71.499455,	 10.001159,	 0.095926 
0.135000,	 0.000186,	 1.000746,	 0.953613,	 -0.005802,	 179.068135,	 71.498703,	 10.001176,	 0.095352 
0.165000,	 0.000186,	 1.000734,	 0.947175,	 -0.005929,	 179.062996,	 71.498205,	 10.001203,	 0.094708 
0.195000,	 0.000186,	 1.000723,	 0.939894,	 -0.006118,	 179.057554,	 71.497999,	 10.001243,	 0.093980 
0.225000,	 0.000186,	 1.000713,	 0.931614,	 -0.006376,	 179.051746,	 71.498084,	 10.001298,	 0.093152 
0.255000,	 0.000186,	 1.000704,	 0.922157,	 -0.006715,	 179.045514,	 71.498452,	 10.001368,	 0.092206 
0.285000,	 0.000186,	 1.000695,	 0.911307,	 -0.007150,	 179.038815,	 71.499085,	 10.001459,	 0.091120 
0.315000,	 0.000186,	 1.000684,	 0.898798,	 -0.007705,	 179.031622,	 71.499968,	 10.001575,	 0.089869 
0.345000,	 0.000186,	 1.000671,	 0.884291,	 -0.008411,	 179.023933,	 71.501078,	 10.001721,	 0.088418 
0.375000,	 0.000186,	 1.000651,	 0.867348,	 -0.009313,	 179.015789,	 71.502383,	 10.001909,	 0.086723 
0.405000,	 0.000186,	 1.000623,	 0.847385,	 -0.010477,	 179.007295,	 71.503837,	 10.002150,	 0.084727 
0.435000,	 0.000186,	 1.000582,	 0.823600,	 -0.011992,	 178.998646,	 71.505360,	 10.002463,	 0.082348 
0.465000,	 0.000186,	 1.000520,	 0.794851,	 -0.013987,	 178.990164,	 71.506811,	 10.002876,	 0.079475 
0.495000,	 0.000186,	 1.000425,	 0.759422,	 -0.016643,	 178.982337,	 71.507920,	 10.003427,	 0.075934 
0.525000,	 0.000186,	 1.000279,	 0.714551,	 -0.020211,	 178.975822,	 71.508100,	 10.004168,	 0.071454 
0.555000,	 0.000186,	 1.000046,	 0.655299,	 -0.025016,	 178.971280,	 71.505819,	 10.005174,	 0.065544 
0.585000,	 0.000186,	 0.999636,	 0.571171,	 -0.031336,	 178.968249,	 71.495794,	 10.006528,	 0.057166 
0.615000,	 0.000186,	 0.998672,	 0.431456,	 -0.037822,	 178.956811,	 71.450216,	 10.008161,	 0.043276 
0.645000,	 0.000186,	 1.000703,	 0.114119,	 0.000949,	 179.080168,	 71.679825,	 10.014053,	 0.011396 
0.675000,	 0.000186,	 0.998884,	 0.080962,	 0.000039,	 179.013141,	 71.524015,	 10.012269,	 0.008086 
0.705000,	 0.000186,	 0.998481,	 0.067891,	 -0.000030,	 179.000609,	 71.490552,	 10.011945,	 0.006781 
0.735000,	 0.000186,	 0.998278,	 0.060504,	 -0.000043,	 178.995155,	 71.474060,	 10.011806,	 0.006043 
0.765000,	 0.000186,	 0.998148,	 0.055531,	 -0.000047,	 178.992008,	 71.463574,	 10.011726,	 0.005547 
0.795000,	 0.000186,	 0.998054,	 0.051856,	 -0.000048,	 178.989921,	 71.456079,	 10.011673,	 0.005180 
0.825000,	 0.000186,	 0.997981,	 0.048978,	 -0.000048,	 178.988416,	 71.450352,	 10.011635,	 0.004892 
0.855000,	 0.000186,	 0.997923,	 0.046633,	 -0.000048,	 178.987268,	 71.445789,	 10.011606,	 0.004658 
0.885000,	 0.000186,	 0.997876,	 0.044668,	 -0.000047,	 178.986358,	 71.442047,	 10.011583,	 0.004462 
0.915000,	 0.000186,	 0.997836,	 0.042985,	 -0.000047,	 178.985616,	 71.438916,	 10.011565,	 0.004294 
0.945000,	 0.000186,	 0.997802,	 0.041519,	 -0.000046,	 178.984997,	 71.436259,	 10.011549,	 0.004147 
0.975000,	 0.000186,	 0.997772,	 0.040225,	 -0.000045,	 178.984474,	 71.433980,	 10.011536,	 0.004018 
1.005000,	 0.000186,	 0.997747,	 0.039069,	 -0.000045,	 178.984026,	 71.432010,	 10.011525,	 0.003902 
1.035000,	 0.000186,	 0.997725,	 0.038029,	 -0.000044,	 178.983639,	 71.430296,	 10.011515,	 0.003799 
1.065000,	 0.000186,	 0.997706,	 0.037084,	 -0.000043,	 178.983303,	 71.428799,	 10.011507,	 0.003704 
1.095000,	 0.000186,	 0.997689,	 0.036222,	 -0.000043,	 178.983008,	 71.427487,	 10.011499,	 0.003618 
1.125000,	 0.000186,	 0.997674,	 0.035429,	 -0.000042,	 178.982748,	 71.426335,	 10.011493,	 0.003539 
1.155000,	 0.000186,	 0.997661,	 0.034698,	 -0.000041,	 178.982518,	 71.425322,	 10.011487,	 0.003466 
1.185000,	 0.000186,	 0.997650,	 0.034020,	 -0.000041,	 178.982313,	 71.424428,	 10.011482,	 0.003398 
1.215000,	 0.000186,	 0.997640,	 0.033390,	 -0.000040,	 178.982129,	 71.423640,	 10.011477,	 0.003335 
1.245000,	 0.000186,	 0.997631,	 0.032802,	 -0.000040,	 178.981963,	 71.422944,	 10.011473,	 0.003276 
1.275000,	 0.000186,	 0.997623,	 0.032252,	 -0.000039,	 178.981811,	 71.422329,	 10.011470,	 0.003222 
1.305000,	 0.000186,	 0.997616,	 0.031737,	 -0.000039,	 178.981671,	 71.421784,	 10.011466,	 0.003170 
1.335000,	 0.000186,	 0.997610,	 0.031253,	 -0.000038,	 178.981541,	 71.421300,	 10.011463,	 0.003122 
1.365000,	 0.000186,	 0.997604,	 0.030797,	 -0.000038,	 178.981417,	 71.420869,	 10.011460,	 0.003076 
1.395000,	 0.000186,	 0.997600,	 0.030368,	 -0.000038,	 178.981298,	 71.420484,	 10.011457,	 0.003033 
1.425000,	 0.000186,	 0.997595,	 0.029963,	 -0.000037,	 178.981182,	 71.420138,	 10.011454,	 0.002993 
1.455000,	 0.000186,	 0.997592,	 0.029580,	 -0.000037,	 178.981066,	 71.419826,	 10.011451,	 0.002955 
1.485000,	 0.000186,	 0.997588,	 0.029219,	 -0.000037,	 178.980949,	 71.419541,	 10.011448,	 0.002919 
1.515000,	 0.000186,	 0.997585,	 0.028876,	 -0.000036,	 178.980829,	 71.419280,	 10.011445,	 0.002884 
1.545000,	 0.000186,	 0.997582,	 0.028551,	 -0.000036,	 178.980704,	 71.419037,	 10.011442,	 0.002852 
1.575000,	 0.000186,	 0.997580,	 0.028244,	 -0.000036,	 178.980573,	 71.418808,	 10.011438,	 0.002821 
1.605000,	 0.000186,	 0.997578,	 0.027952,	 -0.000035,	 178.980434,	 71.418590,	 10.011435,	 0.002792 
1.635000,	 0.000186,	 0.997575,	 0.027675,	 -0.000035,	 178.980286,	 71.418379,	 10.011431,	 0.002764 
1.665000,	 0.000186,	 0.997573,	 0.027413,	 -0.000035,	 178.980127,	 71.418172,	 10.011427,	 0.002738 
1.695000,	 0.000186,	 0.997571,	 0.027163,	 -0.000035,	 178.979956,	 71.417966,	 10.011422,	 0.002713 
1.725000,	 0.000186,	 0.997569,	 0.026926,	 -0.000034,	 178.979772,	 71.417759,	 10.011417,	 0.002690 
1.755000,	 0.000186,	 0.997568,	 0.026702,	 -0.000034,	 178.979574,	 71.417549,	 10.011412,	 0.002667 
1.785000,	 0.000186,	 0.997566,	 0.026488,	 -0.000034,	 178.979360,	 71.417332,	 10.011406,	 0.002646 
1.815000,	 0.000186,	 0.997564,	 0.026285,	 -0.000034,	 178.979129,	 71.417108,	 10.011399,	 0.002626 
1.845000,	 0.000186,	 0.997562,	 0.026093,	 -0.000034,	 178.978881,	 71.416874,	 10.011393,	 0.002606 
1.875000,	 0.000186,	 0.997560,	 0.025910,	 -0.000033,	 178.978614,	 71.416629,	 10.011385,	 0.002588 
1.905000,	 0.000186,	 0.997558,	 0.025736,	 -0.000033,	 178.978327,	 71.416371,	 10.011377,	 0.002571 
1.935000,	 0.000186,	 0.997556,	 0.025572,	 -0.000033,	 178.978020,	 71.416099,	 10.011369,	 0.002554 
1.965000,	 0.000186,	 0.997554,	 0.025416,	 -0.000033,	 178.977692,	 71.415812,	 10.011360,	 0.002539 
1.995000,	 0.000186,	 0.997551,	 0.025268,	 -0.000033,	 178.977343,	 71.415508,	 10.011350,	 0.002524 
2.025000,	 0.000186,	 0.997549,	 0.025128,	 -0.000033,	 178.976971,	 71.415186,	 10.011340,	 0.002510 
2.055000,	 0.000186,	 0.997546,	 0.024995,	 -0.000032,	 178.976576,	 71.414847,	 10.011329,	 0.002497 
2.085000,	 0.000186,	 0.997544,	 0.024870,	 -0.000032,	 178.976158,	 71.414487,	 10.011317,	 0.002484 
2.115000,	 0.000186,	 0.997541,	 0.024751,	 -0.000032,	 178.975717,	 71.414108,	 10.011305,	 0.002472 
2.145000,	 0.000186,	 0.997538,	 0.024640,	 -0.000032,	 178.975252,	 71.413709,	 10.011292,	 0.002461 
2.175000,	 0.000186,	 0.997535,	 0.024534,	 -0.000032,	 178.974764,	 71.413288,	 10.011279,	 0.002451 
2.205000,	 0.000186,	 0.997531,	 0.024435,	 -0.000032,	 178.974251,	 71.412845,	 10.011264,	 0.002441 
2.235000,	 0.000186,	 0.997528,	 0.024341,	 -0.000032,	 178.973714,	 71.412379,	 10.011249,	 0.002431 
2.265000,	 0.000186,	 0.997524,	 0.024254,	 -0.000032,	 178.973154,	 71.411891,	 10.011234,	 0.002423 
2.295000,	 0.000186,	 0.997520,	 0.024171,	 -0.000032,	 178.972571,	 71.411380,	 10.011218,	 0.002414 
2.325000,	 0.000186,	 0.997516,	 0.024095,	 -0.000032,	 178.971965,	 71.410844,	 10.011201,	 0.002407 
2.355000,	 0.000186,	 0.997512,	 0.024023,	 -0.000032,	 178.971336,	 71.410285,	 10.011183,	 0.002400 
2.385000,	 0.000186,	 0.997507,	 0.023956,	 -0.000031,	 178.970686,	 71.409702,	 10.011165,	 0.002393 
2.415000,	 0.000186,	 0.997502,	 0.023894,	 -0.000031,	 178.970015,	 71.409094,	 10.011146,	 0.002387 
2.445000,	 0.000186,	 0.997497,	 0.023837,	 -0.000031,	 178.969324,	 71.408460,	 10.011127,	 0.002381 
2.475000,	 0.000186,	 0.997492,	 0.023785,	 -0.000031,	 178.968614,	 71.407802,	 10.011107,	 0.002376 
2.505000,	 0.000186,	 0.997487,	 0.023736,	 -0.000031,	 178.967887,	 71.407118,	 10.011087,	 0.002371 
2.535000,	 0.000186,	 0.997481,	 0.023693,	 -0.000031,	 178.967144,	 71.406408,	 10.011066,	 0.002367 
2.565000,	 0.000186,	 0.997475,	 0.023653,	 -0.000031,	 178.966386,	 71.405671,	 10.011045,	 0.002363 
2.595000,	 0.000186,	 0.997468,	 0.023617,	 -0.000031,	 178.965616,	 71.404908,	 10.011023,	 0.002359 
2.625000,	 0.000186,	 0.997462,	 0.023586,	 -0.000031,	 178.964836,	 71.404117,	 10.011002,	 0.002356 
2.655000,	 0.000186,	 0.997455,	 0.023558,	 -0.000031,	 178.964047,	 71.403297,	 10.010980,	 0.002353 
2.685000,	 0.000186,	 0.997447,	 0.023534,	 -0.000031,	 178.963253,	 71.402447,	 10.010957,	 0.002351 
2.715000,	 0.000186,	 0.997439,	 0.023514,	 -0.000031,	 178.962456,	 71.401565,	 10.010935,	 0.002349 
2.745000,	 0.000186,	 0.997431,	 0.023497,	 -0.000031,	 178.961658,	 71.400650,	 10.010913,	 0.002347 
2.775000,	 0.000186,	 0.997422,	 0.023483,	 -0.000031,	 178.960862,	 71.399696,	 10.010890,	 0.002346 
2.805000,	 0.000186,	 0.997413,	 0.023473,	 -0.000031,	 178.960071,	 71.398699,	 10.010868,	 0.002345 
2.835000,	 0.000186,	 0.997402,	 0.023465,	 -0.000031,	 178.959286,	 71.397652,	 10.010846,	 0.002344 
2.865000,	 0.000186,	 0.997391,	 0.023459,	 -0.000031,	 178.958508,	 71.396547,	 10.010825,	 0.002343 
2.895000,	 0.000186,	 0.997379,	 0.023455,	 -0.000031,	 178.957740,	 71.395372,	 10.010803,	 0.002343 
2.925000,	 0.000186,	 0.997366,	 0.023450,	 -0.000031,	 178.956983,	 71.394117,	 10.010782,	 0.002342 
2.955000,	 0.000186,	 0.997351,	 0.023441,	 -0.000031,	 178.956244,	 71.392783,	 10.010761,	 0.002342 
2.985000,	 0.000186,	 0.997336,	 0.023423,	 -0.000031,	 178.955552,	 71.391420,	 10.010742,	 0.002340 
0.015000,	 0.000483,	 1.000734,	 0.975660,	 -0.005200,	 179.085807,	 71.496341,	 10.001075,	 0.097557 
0.045000,	 0.000483,	 1.000781,	 0.970286,	 -0.005578,	 179.082943,	 71.500662,	 10.001142,	 0.097019 
0.075000,	 0.000483,	 1.000776,	 0.965316,	 -0.005635,	 179.078533,	 71.500458,	 10.001153,	 0.096522 
0.105000,	 0.000483,	 1.000762,	 0.960083,	 -0.005671,	 179.073819,	 71.499636,	 10.001162,	 0.095999 
0.135000,	 0.000483,	 1.000749,	 0.954324,	 -0.005740,	 179.068912,	 71.498908,	 10.001179,	 0.095423 
0.165000,	 0.000483,	 1.000737,	 0.947872,	 -0.005861,	 179.063769,	 71.498441,	 10.001207,	 0.094778 
0.195000,	 0.000483,	 1.000726,	 0.940577,	 -0.006040,	 179.058327,	 71.498271,	 10.001247,	 0.094048 
0.225000,	 0.000483,	 1.000717,	 0.932285,	 -0.006287,	 179.052521,	 71.498400,	 10.001302,	 0.093218 
0.255000,	 0.000483,	 1.000709,	 0.922815,	 -0.006613,	 179.046295,	 71.498818,	 10.001373,	 0.092271 
0.285000,	 0.000483,	 1.000700,	 0.911952,	 -0.007034,	 179.039605,	 71.499512,	 10.001465,	 0.091185 
0.315000,	 0.000483,	 1.000690,	 0.899429,	 -0.007570,	 179.032424,	 71.500467,	 10.001581,	 0.089932 
0.345000,	 0.000483,	 1.000677,	 0.884906,	 -0.008255,	 179.024751,	 71.501664,	 10.001729,	 0.088479 
0.375000,	 0.000483,	 1.000659,	 0.867944,	 -0.009130,	 179.016629,	 71.503078,	 10.001918,	 0.086783 
0.405000,	 0.000483,	 1.000633,	 0.847958,	 -0.010260,	 179.008163,	 71.504667,	 10.002160,	 0.084784 
0.435000,	 0.000483,	 1.000593,	 0.824144,	 -0.011732,	 178.999552,	 71.506363,	 10.002476,	 0.082402 
0.465000,	 0.000483,	 1.000534,	 0.795363,	 -0.013670,	 178.991125,	 71.508044,	 10.002892,	 0.079525 
0.495000,	 0.000483,	 1.000443,	 0.759903,	 -0.016247,	 178.983384,	 71.509470,	 10.003446,	 0.075982 
0.525000,	 0.000483,	 1.000303,	 0.715025,	 -0.019699,	 178.977017,	 71.510114,	 10.004193,	 0.071500 
0.555000,	 0.000483,	 1.000079,	 0.655865,	 -0.024313,	 178.972765,	 71.508583,	 10.005206,	 0.065597 
0.585000,	 0.000483,	 0.999685,	 0.572302,	 -0.030256,	 178.970400,	 71.499973,	 10.006571,	 0.057272 
0.615000,	 0.000483,	 0.998764,	 0.436914,	 -0.035668,	 178.960667,	 71.457372,	 10.008205,	 0.043801 
0.645000,	 0.000483,	 1.000743,	 0.183644,	 0.002574,	 179.081605,	 71.679129,	 10.013803,	 0.018341 
0.675000,	 0.000483,	 0.998907,	 0.134857,	 0.000477,	 179.014362,	 71.523828,	 10.012140,	 0.013469 
0.705000,	 0.000483,	 0.998488,	 0.113536,	 0.000193,	 179.001116,	 71.489588,	 10.011844,	 0.011340 
0.735000,	 0.000483,	 0.998279,	 0.101274,	 0.000111,	 178.995385,	 71.472906,	 10.011720,	 0.010116 
0.765000,	 0.000483,	 0.998146,	 0.092984,	 0.000074,	 178.992099,	 71.462375,	 10.011651,	 0.009288 
0.795000,	 0.000483,	 0.998050,	 0.086846,	 0.000054,	 178.989931,	 71.454880,	 10.011606,	 0.008675 
0.825000,	 0.000483,	 0.997977,	 0.082035,	 0.000041,	 178.988373,	 71.449170,	 10.011574,	 0.008194 
0.855000,	 0.000483,	 0.997918,	 0.078113,	 0.000032,	 178.987189,	 71.444629,	 10.011549,	 0.007802 
0.885000,	 0.000483,	 0.997870,	 0.074825,	 0.000025,	 178.986253,	 71.440911,	 10.011530,	 0.007474 
0.915000,	 0.000483,	 0.997830,	 0.072009,	 0.000020,	 178.985491,	 71.437804,	 10.011515,	 0.007193 
0.945000,	 0.000483,	 0.997796,	 0.069555,	 0.000017,	 178.984857,	 71.435171,	 10.011502,	 0.006947 
0.975000,	 0.000483,	 0.997766,	 0.067388,	 0.000014,	 178.984323,	 71.432914,	 10.011491,	 0.006731 
1.005000,	 0.000483,	 0.997741,	 0.065454,	 0.000011,	 178.983865,	 71.430964,	 10.011482,	 0.006538 
1.035000,	 0.000483,	 0.997719,	 0.063712,	 0.000009,	 178.983471,	 71.429270,	 10.011474,	 0.006364 
1.065000,	 0.000483,	 0.997700,	 0.062130,	 0.000008,	 178.983128,	 71.427792,	 10.011467,	 0.006206 
1.095000,	 0.000483,	 0.997683,	 0.060685,	 0.000006,	 178.982828,	 71.426498,	 10.011461,	 0.006062 
1.125000,	 0.000483,	 0.997668,	 0.059358,	 0.000005,	 178.982564,	 71.425363,	 10.011456,	 0.005929 
1.155000,	 0.000483,	 0.997655,	 0.058133,	 0.000004,	 178.982330,	 71.424365,	 10.011451,	 0.005807 
1.185000,	 0.000483,	 0.997643,	 0.056998,	 0.000003,	 178.982123,	 71.423487,	 10.011447,	 0.005693 
1.215000,	 0.000483,	 0.997633,	 0.055943,	 0.000002,	 178.981936,	 71.422713,	 10.011444,	 0.005588 
1.245000,	 0.000483,	 0.997624,	 0.054958,	 0.000002,	 178.981768,	 71.422030,	 10.011441,	 0.005490 
1.275000,	 0.000483,	 0.997617,	 0.054038,	 0.000001,	 178.981615,	 71.421427,	 10.011438,	 0.005398 
1.305000,	 0.000483,	 0.997610,	 0.053174,	 0.000000,	 178.981474,	 71.420894,	 10.011435,	 0.005311 
1.335000,	 0.000483,	 0.997604,	 0.052364,	 -0.000000,	 178.981342,	 71.420421,	 10.011433,	 0.005230 
1.365000,	 0.000483,	 0.997598,	 0.051601,	 -0.000001,	 178.981218,	 71.420001,	 10.011430,	 0.005154 
1.395000,	 0.000483,	 0.997593,	 0.050882,	 -0.000001,	 178.981098,	 71.419626,	 10.011428,	 0.005082 
1.425000,	 0.000483,	 0.997589,	 0.050203,	 -0.000001,	 178.980981,	 71.419290,	 10.011426,	 0.005015 
1.455000,	 0.000483,	 0.997585,	 0.049562,	 -0.000002,	 178.980864,	 71.418987,	 10.011423,	 0.004951 
1.485000,	 0.000483,	 0.997582,	 0.048956,	 -0.000002,	 178.980747,	 71.418711,	 10.011421,	 0.004890 
1.515000,	 0.000483,	 0.997579,	 0.048382,	 -0.000002,	 178.980626,	 71.418458,	 10.011418,	 0.004833 
1.545000,	 0.000483,	 0.997576,	 0.047838,	 -0.000003,	 178.980501,	 71.418222,	 10.011415,	 0.004778 
1.575000,	 0.000483,	 0.997574,	 0.047323,	 -0.000003,	 178.980370,	 71.418001,	 10.011412,	 0.004727 
1.605000,	 0.000483,	 0.997571,	 0.046834,	 -0.000003,	 178.980231,	 71.417790,	 10.011409,	 0.004678 
1.635000,	 0.000483,	 0.997569,	 0.046370,	 -0.000003,	 178.980083,	 71.417585,	 10.011406,	 0.004632 
1.665000,	 0.000483,	 0.997567,	 0.045930,	 -0.000004,	 178.979924,	 71.417385,	 10.011402,	 0.004588 
1.695000,	 0.000483,	 0.997565,	 0.045512,	 -0.000004,	 178.979753,	 71.417185,	 10.011398,	 0.004546 
1.725000,	 0.000483,	 0.997563,	 0.045115,	 -0.000004,	 178.979569,	 71.416984,	 10.011393,	 0.004506 
1.755000,	 0.000483,	 0.997562,	 0.044739,	 -0.000004,	 178.979371,	 71.416779,	 10.011388,	 0.004469 
1.785000,	 0.000483,	 0.997560,	 0.044381,	 -0.000004,	 178.979157,	 71.416568,	 10.011382,	 0.004433 
1.815000,	 0.000483,	 0.997558,	 0.044041,	 -0.000005,	 178.978926,	 71.416349,	 10.011376,	 0.004399 
1.845000,	 0.000483,	 0.997556,	 0.043718,	 -0.000005,	 178.978678,	 71.416119,	 10.011370,	 0.004367 
1.875000,	 0.000483,	 0.997554,	 0.043412,	 -0.000005,	 178.978411,	 71.415879,	 10.011363,	 0.004336 
1.905000,	 0.000483,	 0.997552,	 0.043122,	 -0.000005,	 178.978124,	 71.415625,	 10.011355,	 0.004307 
1.935000,	 0.000483,	 0.997550,	 0.042846,	 -0.000005,	 178.977817,	 71.415357,	 10.011347,	 0.004280 
1.965000,	 0.000483,	 0.997548,	 0.042584,	 -0.000005,	 178.977490,	 71.415073,	 10.011338,	 0.004254 
1.995000,	 0.000483,	 0.997545,	 0.042337,	 -0.000005,	 178.977140,	 71.414773,	 10.011328,	 0.004229 
2.025000,	 0.000483,	 0.997543,	 0.042102,	 -0.000006,	 178.976769,	 71.414455,	 10.011318,	 0.004205 
2.055000,	 0.000483,	 0.997540,	 0.041880,	 -0.000006,	 178.976374,	 71.414118,	 10.011308,	 0.004183 
2.085000,	 0.000483,	 0.997538,	 0.041669,	 -0.000006,	 178.975956,	 71.413762,	 10.011296,	 0.004162 
2.115000,	 0.000483,	 0.997535,	 0.041471,	 -0.000006,	 178.975515,	 71.413386,	 10.011284,	 0.004142 
2.145000,	 0.000483,	 0.997532,	 0.041283,	 -0.000006,	 178.975051,	 71.412989,	 10.011271,	 0.004124 
2.175000,	 0.000483,	 0.997529,	 0.041106,	 -0.000006,	 178.974562,	 71.412570,	 10.011258,	 0.004106 
2.205000,	 0.000483,	 0.997525,	 0.040940,	 -0.000006,	 178.974049,	 71.412129,	 10.011244,	 0.004089 
2.235000,	 0.000483,	 0.997522,	 0.040783,	 -0.000006,	 178.973513,	 71.411666,	 10.011229,	 0.004074 
2.265000,	 0.000483,	 0.997518,	 0.040636,	 -0.000006,	 178.972953,	 71.411180,	 10.011213,	 0.004059 
2.295000,	 0.000483,	 0.997514,	 0.040499,	 -0.000006,	 178.972370,	 71.410670,	 10.011197,	 0.004045 
2.325000,	 0.000483,	 0.997510,	 0.040370,	 -0.000006,	 178.971764,	 71.410137,	 10.011180,	 0.004032 
2.355000,	 0.000483,	 0.997506,	 0.040250,	 -0.000007,	 178.971135,	 71.409579,	 10.011163,	 0.004020 
2.385000,	 0.000483,	 0.997501,	 0.040138,	 -0.000007,	 178.970485,	 71.408997,	 10.011145,	 0.004009 
2.415000,	 0.000483,	 0.997497,	 0.040034,	 -0.000007,	 178.969814,	 71.408391,	 10.011126,	 0.003999 
2.445000,	 0.000483,	 0.997492,	 0.039938,	 -0.000007,	 178.969123,	 71.407759,	 10.011107,	 0.003989 
2.475000,	 0.000483,	 0.997486,	 0.039850,	 -0.000007,	 178.968413,	 71.407101,	 10.011087,	 0.003981 
2.505000,	 0.000483,	 0.997481,	 0.039769,	 -0.000007,	 178.967686,	 71.406418,	 10.011067,	 0.003973 
2.535000,	 0.000483,	 0.997475,	 0.039696,	 -0.000007,	 178.966943,	 71.405709,	 10.011046,	 0.003965 
2.565000,	 0.000483,	 0.997469,	 0.039629,	 -0.000007,	 178.966185,	 71.404973,	 10.011025,	 0.003959 
2.595000,	 0.000483,	 0.997463,	 0.039569,	 -0.000007,	 178.965415,	 71.404210,	 10.011004,	 0.003953 
2.625000,	 0.000483,	 0.997456,	 0.039516,	 -0.000007,	 178.964635,	 71.403420,	 10.010982,	 0.003947 
2.655000,	 0.000483,	 0.997449,	 0.039470,	 -0.000007,	 178.963846,	 71.402600,	 10.010960,	 0.003943 
2.685000,	 0.000483,	 0.997441,	 0.039429,	 -0.000007,	 178.963052,	 71.401751,	 10.010938,	 0.003939 
2.715000,	 0.000483,	 0.997433,	 0.039395,	 -0.000007,	 178.962255,	 71.400869,	 10.010915,	 0.003935 