TITLE = "Final State"
VARIABLES = "X", "Y", "rho", "u", "v", "T", "p", "c", "M"
ZONE I=50, J=50, DATAPACKING=POINT
0.010000,	 0.000015,	 0.998783,	 9.938624,	 0.000251,	 300.521244,	 86173.891755,	 347.549140,	 0.028596 
0.030000,	 0.000015,	 0.998831,	 9.866866,	 -0.000113,	 300.504107,	 86173.091087,	 347.539230,	 0.028391 
0.050000,	 0.000015,	 0.998815,	 9.871294,	 0.000190,	 300.508889,	 86173.037533,	 347.541996,	 0.028403 
0.070000,	 0.000015,	 0.998790,	 9.817874,	 0.000513,	 300.516355,	 86173.036126,	 347.546313,	 0.028249 
0.090000,	 0.000015,	 0.998923,	 9.661152,	 -0.000374,	 300.476561,	 86173.112199,	 347.523301,	 0.027800 
0.110000,	 0.000015,	 0.998875,	 9.707753,	 0.000268,	 300.490297,	 86172.904183,	 347.531244,	 0.027933 
0.130000,	 0.000015,	 0.998860,	 9.642209,	 0.000392,	 300.494595,	 86172.880129,	 347.533730,	 0.027745 
0.150000,	 0.000015,	 0.998835,	 9.504746,	 0.000717,	 300.501945,	 86172.810269,	 347.537980,	 0.027349 
0.170000,	 0.000015,	 0.998757,	 9.250200,	 0.001592,	 300.525132,	 86172.700923,	 347.551388,	 0.026615 
0.190000,	 0.000015,	 0.998529,	 8.709980,	 0.004616,	 300.593339,	 86172.594593,	 347.590826,	 0.025058 
0.210000,	 0.000015,	 0.998263,	 7.249230,	 0.018200,	 300.675036,	 86173.102681,	 347.638058,	 0.020853 
0.230000,	 0.000015,	 0.999026,	 1.903738,	 -0.000572,	 300.459887,	 86177.185863,	 347.513659,	 0.005478 
0.250000,	 0.000015,	 0.999265,	 0.849523,	 -0.000005,	 300.379557,	 86174.808883,	 347.467201,	 0.002445 
0.270000,	 0.000015,	 0.999429,	 0.540960,	 0.000037,	 300.327822,	 86174.118518,	 347.437277,	 0.001557 
0.290000,	 0.000015,	 0.999451,	 0.409656,	 0.000021,	 300.320154,	 86173.808718,	 347.432841,	 0.001179 
0.310000,	 0.000015,	 0.999688,	 0.335041,	 0.000022,	 300.248437,	 86173.632005,	 347.391355,	 0.000964 
0.330000,	 0.000015,	 0.999891,	 0.288434,	 0.000016,	 300.186959,	 86173.513766,	 347.355788,	 0.000830 
0.350000,	 0.000015,	 1.000056,	 0.256283,	 0.000012,	 300.137254,	 86173.427063,	 347.327029,	 0.000738 
0.370000,	 0.000015,	 1.000163,	 0.232847,	 0.000009,	 300.104898,	 86173.359236,	 347.308307,	 0.000670 
0.390000,	 0.000015,	 1.000216,	 0.215153,	 0.000007,	 300.088656,	 86173.303796,	 347.298908,	 0.000620 
0.410000,	 0.000015,	 1.000232,	 0.201434,	 0.000006,	 300.083741,	 86173.256903,	 347.296064,	 0.000580 
0.430000,	 0.000015,	 1.000235,	 0.190717,	 0.000004,	 300.082809,	 86173.216336,	 347.295525,	 0.000549 
0.450000,	 0.000015,	 1.000215,	 0.182848,	 -0.000001,	 300.088588,	 86173.156659,	 347.298869,	 0.000526 
0.470000,	 0.000015,	 1.000160,	 0.175605,	 0.000003,	 300.104893,	 86173.149811,	 347.308304,	 0.000506 
0.490000,	 0.000015,	 1.000083,	 0.170250,	 0.000002,	 300.128022,	 86173.121651,	 347.321687,	 0.000490 
0.510000,	 0.000015,	 0.998752,	 0.165957,	 0.000001,	 300.527779,	 86173.095254,	 347.552919,	 0.000478 
0.530000,	 0.000015,	 0.999476,	 0.163116,	 -0.000001,	 300.309990,	 86172.994647,	 347.426962,	 0.000469 
0.550000,	 0.000015,	 0.999930,	 0.160907,	 0.000000,	 300.173654,	 86173.052110,	 347.348090,	 0.000463 
0.570000,	 0.000015,	 1.000260,	 0.159833,	 -0.000000,	 300.074672,	 86173.033554,	 347.290817,	 0.000460 
0.590000,	 0.000015,	 1.000266,	 0.159632,	 -0.000001,	 300.072843,	 86173.016911,	 347.289758,	 0.000460 
0.610000,	 0.000015,	 1.000253,	 0.160278,	 -0.000001,	 300.076475,	 86173.002015,	 347.291860,	 0.000462 
0.630000,	 0.000015,	 1.000247,	 0.161786,	 -0.000002,	 300.078301,	 86172.988824,	 347.292917,	 0.000466 
0.650000,	 0.000015,	 1.000245,	 0.164195,	 -0.000002,	 300.078809,	 86172.977335,	 347.293211,	 0.000473 
0.670000,	 0.000015,	 1.000246,	 0.167572,	 -0.000003,	 300.078657,	 86172.967582,	 347.293122,	 0.000483 
0.690000,	 0.000015,	 1.000247,	 0.172015,	 -0.000004,	 300.078199,	 86172.959649,	 347.292857,	 0.000495 
0.710000,	 0.000015,	 1.000249,	 0.177663,	 -0.000005,	 300.077565,	 86172.953689,	 347.292491,	 0.000512 
0.730000,	 0.000015,	 1.000252,	 0.184704,	 -0.000006,	 300.076772,	 86172.949923,	 347.292031,	 0.000532 
0.750000,	 0.000015,	 1.000255,	 0.193397,	 -0.000007,	 300.075780,	 86172.948680,	 347.291457,	 0.000557 
0.770000,	 0.000015,	 1.000259,	 0.204090,	 -0.000009,	 300.074520,	 86172.950419,	 347.290728,	 0.000588 
0.790000,	 0.000015,	 1.000265,	 0.217266,	 -0.000011,	 300.072881,	 86172.955812,	 347.289780,	 0.000626 
0.810000,	 0.000015,	 1.000272,	 0.233605,	 -0.000014,	 300.070707,	 86172.965834,	 347.288522,	 0.000673 
0.830000,	 0.000015,	 1.000282,	 0.254088,	 -0.000018,	 300.067770,	 86172.981932,	 347.286822,	 0.000732 
0.850000,	 0.000015,	 1.000296,	 0.280184,	 -0.000023,	 300.063737,	 86173.006307,	 347.284489,	 0.000807 
0.870000,	 0.000015,	 1.000315,	 0.314190,	 -0.000032,	 300.058111,	 86173.042462,	 347.281233,	 0.000905 
0.890000,	 0.000015,	 1.000342,	 0.359925,	 -0.000045,	 300.050093,	 86173.096249,	 347.276593,	 0.001036 
0.910000,	 0.000015,	 1.000383,	 0.424260,	 -0.000069,	 300.038153,	 86173.178077,	 347.269683,	 0.001222 
0.930000,	 0.000015,	 1.000450,	 0.521120,	 -0.000121,	 300.018620,	 86173.307858,	 347.258379,	 0.001501 
0.950000,	 0.000015,	 1.000580,	 0.684308,	 -0.000268,	 299.980359,	 86173.526141,	 347.236236,	 0.001971 
0.970000,	 0.000015,	 1.000849,	 1.021558,	 -0.000878,	 299.901073,	 86173.913702,	 347.190345,	 0.002942 
0.990000,	 0.000015,	 1.001837,	 2.014368,	 -0.004398,	 299.607618,	 86174.554656,	 347.020439,	 0.005805 
0.010000,	 0.000047,	 0.998895,	 9.895478,	 0.000340,	 300.487855,	 86173.912800,	 347.529832,	 0.028474 
0.030000,	 0.000047,	 0.998903,	 9.826633,	 0.000012,	 300.482357,	 86173.069699,	 347.526653,	 0.028276 
0.050000,	 0.000047,	 0.998893,	 9.770862,	 0.000246,	 300.485417,	 86173.082005,	 347.528422,	 0.028115 
0.070000,	 0.000047,	 0.998875,	 9.684829,	 0.000637,	 300.490948,	 86173.084352,	 347.531621,	 0.027867 
0.090000,	 0.000047,	 0.998909,	 9.557725,	 -0.000126,	 300.480590,	 86173.048626,	 347.525631,	 0.027502 
0.110000,	 0.000047,	 0.998878,	 9.471143,	 0.000336,	 300.489699,	 86172.998963,	 347.530899,	 0.027253 
0.130000,	 0.000047,	 0.998828,	 9.317699,	 0.000660,	 300.504701,	 86172.971217,	 347.539574,	 0.026810 
0.150000,	 0.000047,	 0.998738,	 9.062805,	 0.001197,	 300.531629,	 86172.956558,	 347.555145,	 0.026076 
0.170000,	 0.000047,	 0.998564,	 8.632666,	 0.002463,	 300.583960,	 86172.985010,	 347.585403,	 0.024836 
0.190000,	 0.000047,	 0.998258,	 7.853072,	 0.006265,	 300.677064,	 86173.207260,	 347.639230,	 0.022590 
0.210000,	 0.000047,	 0.998044,	 6.337490,	 0.020901,	 300.745740,	 86174.408493,	 347.678929,	 0.018228 
0.230000,	 0.000047,	 0.998777,	 3.526123,	 0.005824,	 300.527214,	 86175.012351,	 347.552592,	 0.010146 
0.250000,	 0.000047,	 0.999120,	 2.174547,	 0.001377,	 300.422167,	 86174.474454,	 347.491845,	 0.006258 
0.270000,	 0.000047,	 0.999305,	 1.534209,	 0.000524,	 300.364962,	 86174.070023,	 347.458759,	 0.004416 
0.290000,	 0.000047,	 0.999487,	 1.192210,	 0.000286,	 300.309543,	 86173.808658,	 347.426703,	 0.003432 
0.310000,	 0.000047,	 0.999573,	 0.990933,	 0.000177,	 300.283057,	 86173.640836,	 347.411382,	 0.002852 
0.330000,	 0.000047,	 0.999669,	 0.857862,	 0.000121,	 300.253680,	 86173.523743,	 347.394388,	 0.002469 
0.350000,	 0.000047,	 0.999770,	 0.764294,	 0.000088,	 300.223094,	 86173.435896,	 347.376694,	 0.002200 
0.370000,	 0.000047,	 0.999871,	 0.695493,	 0.000067,	 300.192478,	 86173.366630,	 347.358981,	 0.002002 
0.390000,	 0.000047,	 0.999948,	 0.643314,	 0.000052,	 300.169134,	 86173.310040,	 347.345475,	 0.001852 
0.410000,	 0.000047,	 0.999961,	 0.602661,	 0.000041,	 300.165223,	 86173.261942,	 347.343212,	 0.001735 
0.430000,	 0.000047,	 0.999943,	 0.570605,	 0.000033,	 300.170531,	 86173.220689,	 347.346283,	 0.001643 
0.450000,	 0.000047,	 0.999613,	 0.544413,	 0.000029,	 300.269210,	 86173.167951,	 347.403372,	 0.001567 
0.470000,	 0.000047,	 0.999975,	 0.525786,	 0.000021,	 300.160660,	 86173.151943,	 347.340572,	 0.001514 
0.490000,	 0.000047,	 0.999709,	 0.510111,	 0.000017,	 300.240405,	 86173.123644,	 347.386708,	 0.001468 
0.510000,	 0.000047,	 0.999782,	 0.497225,	 0.000012,	 300.218334,	 86173.097223,	 347.373940,	 0.001431 
0.530000,	 0.000047,	 0.999462,	 0.487798,	 0.000009,	 300.314185,	 86173.002504,	 347.429389,	 0.001404 
0.550000,	 0.000047,	 1.000157,	 0.482136,	 0.000004,	 300.105572,	 86173.050159,	 347.308697,	 0.001388 
0.570000,	 0.000047,	 1.000244,	 0.479024,	 0.000001,	 300.079300,	 86173.032893,	 347.293495,	 0.001379 
0.590000,	 0.000047,	 1.000281,	 0.478439,	 -0.000003,	 300.068383,	 86173.015662,	 347.287177,	 0.001378 
0.610000,	 0.000047,	 1.000286,	 0.480376,	 -0.000006,	 300.066579,	 86173.000134,	 347.286133,	 0.001383 
0.630000,	 0.000047,	 1.000284,	 0.484885,	 -0.000009,	 300.067310,	 86172.986261,	 347.286556,	 0.001396 
0.650000,	 0.000047,	 1.000282,	 0.492082,	 -0.000013,	 300.067680,	 86172.974021,	 347.286770,	 0.001417 
0.670000,	 0.000047,	 1.000283,	 0.502167,	 -0.000017,	 300.067374,	 86172.963419,	 347.286593,	 0.001446 
0.690000,	 0.000047,	 1.000286,	 0.515430,	 -0.000022,	 300.066662,	 86172.954504,	 347.286182,	 0.001484 
0.710000,	 0.000047,	 1.000289,	 0.532283,	 -0.000027,	 300.065758,	 86172.947382,	 347.285658,	 0.001533 
0.730000,	 0.000047,	 1.000292,	 0.553285,	 -0.000033,	 300.064759,	 86172.942214,	 347.285080,	 0.001593 
0.750000,	 0.000047,	 1.000295,	 0.579193,	 -0.000041,	 300.063692,	 86172.939240,	 347.284462,	 0.001668 
0.770000,	 0.000047,	 1.000299,	 0.611037,	 -0.000050,	 300.062598,	 86172.938793,	 347.283830,	 0.001759 
0.790000,	 0.000047,	 1.000303,	 0.650235,	 -0.000062,	 300.061450,	 86172.941351,	 347.283165,	 0.001872 
0.810000,	 0.000047,	 1.000307,	 0.698769,	 -0.000078,	 300.060246,	 86172.947590,	 347.282469,	 0.002012 
0.830000,	 0.000047,	 1.000311,	 0.759495,	 -0.000099,	 300.058937,	 86172.958466,	 347.281711,	 0.002187 
0.850000,	 0.000047,	 1.000317,	 0.836648,	 -0.000129,	 300.057353,	 86172.975332,	 347.280794,	 0.002409 
0.870000,	 0.000047,	 1.000325,	 0.936778,	 -0.000173,	 300.055038,	 86173.000121,	 347.279455,	 0.002697 
0.890000,	 0.000047,	 1.000339,	 1.070568,	 -0.000242,	 300.050893,	 86173.035531,	 347.277056,	 0.003083 
0.910000,	 0.000047,	 1.000368,	 1.256641,	 -0.000360,	 300.042433,	 86173.084951,	 347.272160,	 0.003619 
0.930000,	 0.000047,	 1.000429,	 1.530360,	 -0.000584,	 300.024328,	 86173.150711,	 347.261682,	 0.004407 
0.950000,	 0.000047,	 1.000560,	 1.966242,	 -0.001088,	 299.985377,	 86173.223843,	 347.239140,	 0.005663 
0.970000,	 0.000047,	 1.000821,	 2.739404,	 -0.002475,	 299.907098,	 86173.234017,	 347.193832,	 0.007890 
0.990000,	 0.000047,	 1.001361,	 4.289076,	 -0.007148,	 299.743981,	 86172.820282,	 347.099402,	 0.012357 
0.010000,	 0.000086,	 0.999125,	 9.852670,	 0.000489,	 300.418562,	 86173.928802,	 347.489760,	 0.028354 
0.030000,	 0.000086,	 0.999119,	 9.766669,	 0.000172,	 300.417548,	 86173.079813,	 347.489173,	 0.028106 
0.050000,	 0.000086,	 0.999110,	 9.671441,	 0.000413,	 300.420312,	 86173.114481,	 347.490772,	 0.027832 
0.070000,	 0.000086,	 0.999092,	 9.553187,	 0.000860,	 300.425673,	 86173.120157,	 347.493872,	 0.027492 
0.090000,	 0.000086,	 0.999087,	 9.404692,	 0.000167,	 300.426913,	 86173.067021,	 347.494589,	 0.027064 
0.110000,	 0.000086,	 0.999051,	 9.235393,	 0.000655,	 300.437796,	 86173.077808,	 347.500883,	 0.026577 
0.130000,	 0.000086,	 0.998985,	 8.999831,	 0.001151,	 300.457761,	 86173.084862,	 347.512429,	 0.025898 
0.150000,	 0.000086,	 0.998874,	 8.653257,	 0.001964,	 300.491387,	 86173.127738,	 347.531875,	 0.024899 
0.170000,	 0.000086,	 0.998687,	 8.127884,	 0.003675,	 300.548162,	 86173.253584,	 347.564705,	 0.023385 
0.190000,	 0.000086,	 0.998386,	 7.313331,	 0.008186,	 300.639732,	 86173.598515,	 347.617648,	 0.021038 
0.210000,	 0.000086,	 0.998110,	 6.069809,	 0.023810,	 300.726809,	 86174.735628,	 347.667987,	 0.017459 
0.230000,	 0.000086,	 0.998534,	 4.415609,	 0.009614,	 300.597705,	 86174.253557,	 347.593350,	 0.012703 
0.250000,	 0.000086,	 0.998855,	 3.236110,	 0.003410,	 300.500459,	 86174.096335,	 347.537121,	 0.009312 
0.270000,	 0.000086,	 0.999063,	 2.492809,	 0.001577,	 300.437311,	 86173.929594,	 347.500603,	 0.007174 
0.290000,	 0.000086,	 0.999209,	 2.022331,	 0.000883,	 300.392796,	 86173.762737,	 347.474858,	 0.005820 
0.310000,	 0.000086,	 0.999316,	 1.712709,	 0.000562,	 300.360032,	 86173.626255,	 347.455908,	 0.004929 
0.330000,	 0.000086,	 0.999405,	 1.498010,	 0.000388,	 300.332891,	 86173.521015,	 347.440209,	 0.004312 
0.350000,	 0.000086,	 0.999486,	 1.342558,	 0.000283,	 300.308308,	 86173.437723,	 347.425989,	 0.003864 
0.370000,	 0.000086,	 0.999562,	 1.226173,	 0.000213,	 300.285397,	 86173.369835,	 347.412736,	 0.003529 
0.390000,	 0.000086,	 0.999546,	 1.137066,	 0.000164,	 300.290047,	 86173.313199,	 347.415426,	 0.003273 
0.410000,	 0.000086,	 0.999573,	 1.066863,	 0.000130,	 300.281511,	 86173.265293,	 347.410488,	 0.003071 
0.430000,	 0.000086,	 0.999624,	 1.011681,	 0.000104,	 300.266279,	 86173.224203,	 347.401676,	 0.002912 
0.450000,	 0.000086,	 0.999773,	 0.967201,	 0.000077,	 300.221388,	 86173.185424,	 347.375707,	 0.002784 
0.470000,	 0.000086,	 0.999758,	 0.934119,	 0.000055,	 300.225622,	 86173.150945,	 347.378156,	 0.002689 
0.490000,	 0.000086,	 0.999814,	 0.906485,	 0.000044,	 300.208740,	 86173.122442,	 347.368389,	 0.002610 
0.510000,	 0.000086,	 0.999547,	 0.883242,	 0.000038,	 300.288810,	 86173.095434,	 347.414711,	 0.002542 
0.530000,	 0.000086,	 1.000028,	 0.867246,	 0.000025,	 300.144216,	 86173.068897,	 347.331057,	 0.002497 
0.550000,	 0.000086,	 1.000049,	 0.856931,	 0.000014,	 300.137963,	 86173.050857,	 347.327439,	 0.002467 
0.570000,	 0.000086,	 1.000018,	 0.851391,	 0.000004,	 300.147121,	 86173.030911,	 347.332738,	 0.002451 
0.590000,	 0.000086,	 1.000060,	 0.850369,	 -0.000006,	 300.134567,	 86173.012864,	 347.325474,	 0.002448 
0.610000,	 0.000086,	 1.000136,	 0.853804,	 -0.000016,	 300.111552,	 86172.996390,	 347.312157,	 0.002458 
0.630000,	 0.000086,	 1.000202,	 0.861765,	 -0.000027,	 300.091887,	 86172.981521,	 347.300778,	 0.002481 
0.650000,	 0.000086,	 1.000243,	 0.874452,	 -0.000038,	 300.079632,	 86172.968157,	 347.293687,	 0.002518 
0.670000,	 0.000086,	 1.000263,	 0.892208,	 -0.000050,	 300.073343,	 86172.956241,	 347.290048,	 0.002569 
0.690000,	 0.000086,	 1.000272,	 0.915539,	 -0.000064,	 300.070577,	 86172.945777,	 347.288447,	 0.002636 
0.710000,	 0.000086,	 1.000276,	 0.945154,	 -0.000080,	 300.069620,	 86172.936802,	 347.287893,	 0.002722 
0.730000,	 0.000086,	 1.000275,	 0.982011,	 -0.000099,	 300.069624,	 86172.929374,	 347.287895,	 0.002828 
0.750000,	 0.000086,	 1.000273,	 1.027407,	 -0.000121,	 300.070277,	 86172.923588,	 347.288273,	 0.002958 
0.770000,	 0.000086,	 1.000269,	 1.083090,	 -0.000149,	 300.071507,	 86172.919568,	 347.288985,	 0.003119 
0.790000,	 0.000086,	 1.000263,	 1.151450,	 -0.000184,	 300.073304,	 86172.917479,	 347.290025,	 0.003316 
0.810000,	 0.000086,	 1.000256,	 1.235794,	 -0.000229,	 300.075550,	 86172.917514,	 347.291324,	 0.003558 
0.830000,	 0.000086,	 1.000247,	 1.340828,	 -0.000290,	 300.078063,	 86172.919850,	 347.292778,	 0.003861 
0.850000,	 0.000086,	 1.000240,	 1.473390,	 -0.000374,	 300.080338,	 86172.924545,	 347.294095,	 0.004242 
0.870000,	 0.000086,	 1.000236,	 1.643787,	 -0.000495,	 300.081460,	 86172.931257,	 347.294745,	 0.004733 
0.890000,	 0.000086,	 1.000242,	 1.868162,	 -0.000679,	 300.079802,	 86172.938517,	 347.293785,	 0.005379 
0.910000,	 0.000086,	 1.000266,	 2.172942,	 -0.000976,	 300.072616,	 86172.941760,	 347.289627,	 0.006257 
0.930000,	 0.000086,	 1.000322,	 2.603459,	 -0.001496,	 300.055558,	 86172.927978,	 347.279756,	 0.007497 
0.950000,	 0.000086,	 1.000431,	 3.240545,	 -0.002506,	 300.022697,	 86172.860933,	 347.260739,	 0.009332 
0.970000,	 0.000086,	 1.000604,	 4.229270,	 -0.004763,	 299.970121,	 86172.641430,	 347.230310,	 0.012180 
0.990000,	 0.000086,	 1.000729,	 5.806730,	 -0.010752,	 299.930317,	 86172.012310,	 347.207272,	 0.016724 
0.010000,	 0.000130,	 0.999258,	 9.808188,	 0.000711,	 300.378719,	 86173.949392,	 347.466716,	 0.028228 
0.030000,	 0.000130,	 0.999245,	 9.698573,	 0.000415,	 300.379777,	 86173.103595,	 347.467328,	 0.027912 
0.050000,	 0.000130,	 0.999235,	 9.571567,	 0.000690,	 300.382853,	 86173.150307,	 347.469107,	 0.027547 
0.070000,	 0.000130,	 0.999217,	 9.420782,	 0.001200,	 300.388250,	 86173.163998,	 347.472228,	 0.027112 
0.090000,	 0.000130,	 0.999197,	 9.237395,	 0.000594,	 300.394221,	 86173.118503,	 347.475682,	 0.026584 
0.110000,	 0.000130,	 0.999159,	 9.012130,	 0.001182,	 300.405854,	 86173.164582,	 347.482410,	 0.025935 
0.130000,	 0.000130,	 0.999096,	 8.718483,	 0.001869,	 300.424762,	 86173.206677,	 347.493345,	 0.025090 
0.150000,	 0.000130,	 0.999000,	 8.321969,	 0.002971,	 300.453845,	 86173.291945,	 347.510165,	 0.023947 
0.170000,	 0.000130,	 0.998853,	 7.778815,	 0.005091,	 300.498728,	 86173.462374,	 347.536120,	 0.022383 
0.190000,	 0.000130,	 0.998614,	 7.040102,	 0.010140,	 300.571877,	 86173.814692,	 347.578417,	 0.020255 
0.210000,	 0.000130,	 0.998291,	 6.082654,	 0.026341,	 300.672657,	 86174.809285,	 347.636683,	 0.017497 
0.230000,	 0.000130,	 0.998447,	 4.993380,	 0.012500,	 300.622587,	 86173.907339,	 347.607736,	 0.014365 
0.250000,	 0.000130,	 0.998661,	 4.061270,	 0.005533,	 300.557865,	 86173.814295,	 347.570315,	 0.011685 
0.270000,	 0.000130,	 0.998839,	 3.355633,	 0.002984,	 300.504194,	 86173.770084,	 347.539281,	 0.009655 
0.290000,	 0.000130,	 0.998976,	 2.841891,	 0.001821,	 300.462511,	 86173.681704,	 347.515176,	 0.008178 
0.310000,	 0.000130,	 0.999083,	 2.468193,	 0.001208,	 300.429970,	 86173.588238,	 347.496357,	 0.007103 
0.330000,	 0.000130,	 0.999170,	 2.191807,	 0.000853,	 300.403466,	 86173.503942,	 347.481029,	 0.006308 
0.350000,	 0.000130,	 0.999245,	 1.983031,	 0.000630,	 300.380820,	 86173.430905,	 347.467931,	 0.005707 
0.370000,	 0.000130,	 0.999312,	 1.822097,	 0.000479,	 300.360472,	 86173.368065,	 347.456162,	 0.005244 
0.390000,	 0.000130,	 0.999411,	 1.695811,	 0.000373,	 300.330652,	 86173.313086,	 347.438914,	 0.004881 
0.410000,	 0.000130,	 0.999398,	 1.596529,	 0.000291,	 300.334346,	 86173.264923,	 347.441051,	 0.004595 
0.430000,	 0.000130,	 0.999501,	 1.518363,	 0.000228,	 300.303160,	 86173.222176,	 347.423012,	 0.004370 
0.450000,	 0.000130,	 0.999528,	 1.451810,	 0.000186,	 300.294921,	 86173.187449,	 347.418245,	 0.004179 
0.470000,	 0.000130,	 0.999600,	 1.398489,	 0.000151,	 300.273021,	 86173.150962,	 347.405577,	 0.004026 
0.490000,	 0.000130,	 0.999708,	 1.357948,	 0.000122,	 300.240531,	 86173.120107,	 347.386781,	 0.003909 
0.510000,	 0.000130,	 0.999989,	 1.328897,	 0.000088,	 300.156233,	 86173.090370,	 347.338010,	 0.003826 
0.530000,	 0.000130,	 1.000170,	 1.306750,	 0.000058,	 300.101811,	 86173.069069,	 347.306521,	 0.003763 
0.550000,	 0.000130,	 1.000455,	 1.291780,	 0.000033,	 300.016282,	 86173.043695,	 347.257026,	 0.003720 
0.570000,	 0.000130,	 1.000606,	 1.283666,	 0.000010,	 299.970914,	 86173.025963,	 347.230769,	 0.003697 
0.590000,	 0.000130,	 1.000607,	 1.282197,	 -0.000012,	 299.970555,	 86173.007811,	 347.230562,	 0.003693 
0.610000,	 0.000130,	 1.000516,	 1.287314,	 -0.000035,	 299.997580,	 86172.989659,	 347.246203,	 0.003707 
0.630000,	 0.000130,	 1.000399,	 1.299124,	 -0.000058,	 300.032693,	 86172.973048,	 347.266523,	 0.003741 
0.650000,	 0.000130,	 1.000294,	 1.317918,	 -0.000083,	 300.064253,	 86172.958107,	 347.284787,	 0.003795 
0.670000,	 0.000130,	 1.000215,	 1.344190,	 -0.000111,	 300.087939,	 86172.944446,	 347.298493,	 0.003870 
0.690000,	 0.000130,	 1.000161,	 1.378664,	 -0.000141,	 300.103888,	 86172.931805,	 347.307723,	 0.003970 
0.710000,	 0.000130,	 1.000127,	 1.422345,	 -0.000176,	 300.114068,	 86172.920099,	 347.313613,	 0.004095 
0.730000,	 0.000130,	 1.000105,	 1.476589,	 -0.000217,	 300.120671,	 86172.909274,	 347.317434,	 0.004251 
0.750000,	 0.000130,	 1.000089,	 1.543206,	 -0.000266,	 300.125420,	 86172.899257,	 347.320182,	 0.004443 
0.770000,	 0.000130,	 1.000076,	 1.624618,	 -0.000326,	 300.129401,	 86172.889893,	 347.322485,	 0.004678 
0.790000,	 0.000130,	 1.000063,	 1.724087,	 -0.000402,	 300.133131,	 86172.880932,	 347.324643,	 0.004964 
0.810000,	 0.000130,	 1.000051,	 1.846054,	 -0.000499,	 300.136668,	 86172.871943,	 347.326690,	 0.005315 
0.830000,	 0.000130,	 1.000041,	 1.996671,	 -0.000626,	 300.139707,	 86172.862151,	 347.328449,	 0.005749 
0.850000,	 0.000130,	 1.000035,	 2.184619,	 -0.000799,	 300.141601,	 86172.850149,	 347.329544,	 0.006290 
0.870000,	 0.000130,	 1.000035,	 2.422406,	 -0.001043,	 300.141351,	 86172.833304,	 347.329400,	 0.006974 
0.890000,	 0.000130,	 1.000048,	 2.728456,	 -0.001399,	 300.137567,	 86172.806601,	 347.327210,	 0.007856 
0.910000,	 0.000130,	 1.000077,	 3.130401,	 -0.001946,	 300.128497,	 86172.760285,	 347.321962,	 0.009013 
0.930000,	 0.000130,	 1.000130,	 3.670039,	 -0.002836,	 300.112372,	 86172.675128,	 347.312632,	 0.010567 
0.950000,	 0.000130,	 1.000207,	 4.409559,	 -0.004392,	 300.088837,	 86172.512991,	 347.299013,	 0.012697 
0.970000,	 0.000130,	 1.000287,	 5.434842,	 -0.007430,	 300.063474,	 86172.198528,	 347.284336,	 0.015650 
0.990000,	 0.000130,	 1.000268,	 6.839122,	 -0.014373,	 300.067028,	 86171.580416,	 347.286393,	 0.019693 
0.010000,	 0.000182,	 0.999309,	 9.764144,	 0.001029,	 300.363325,	 86173.976321,	 347.457812,	 0.028102 
0.030000,	 0.000182,	 0.999293,	 9.630606,	 0.000765,	 300.365220,	 86173.136625,	 347.458908,	 0.027717 
0.050000,	 0.000182,	 0.999283,	 9.476362,	 0.001095,	 300.368565,	 86173.192796,	 347.460843,	 0.027273 
0.070000,	 0.000182,	 0.999266,	 9.296683,	 0.001682,	 300.373794,	 86173.216944,	 347.463868,	 0.026756 
0.090000,	 0.000182,	 0.999242,	 9.082567,	 0.001181,	 300.380729,	 86173.185070,	 347.467879,	 0.026139 
0.110000,	 0.000182,	 0.999208,	 8.822890,	 0.001907,	 300.391202,	 86173.253533,	 347.473936,	 0.025392 
0.130000,	 0.000182,	 0.999159,	 8.500700,	 0.002792,	 300.406273,	 86173.319087,	 347.482653,	 0.024464 
0.150000,	 0.000182,	 0.999090,	 8.095267,	 0.004160,	 300.427414,	 86173.424329,	 347.494879,	 0.023296 
0.170000,	 0.000182,	 0.998990,	 7.585528,	 0.006617,	 300.457951,	 86173.599798,	 347.512539,	 0.021828 
0.190000,	 0.000182,	 0.998822,	 6.957809,	 0.012044,	 300.509839,	 86173.916822,	 347.542545,	 0.020020 
0.210000,	 0.000182,	 0.998506,	 6.224095,	 0.028572,	 300.607842,	 86174.802121,	 347.599211,	 0.017906 
0.230000,	 0.000182,	 0.998495,	 5.445324,	 0.014854,	 300.607464,	 86173.737838,	 347.598993,	 0.015666 
0.250000,	 0.000182,	 0.998594,	 4.722966,	 0.007555,	 300.577180,	 86173.627596,	 347.581483,	 0.013588 
0.270000,	 0.000182,	 0.998710,	 4.111107,	 0.004558,	 300.542432,	 86173.629988,	 347.561391,	 0.011828 
0.290000,	 0.000182,	 0.998816,	 3.616635,	 0.003005,	 300.510489,	 86173.591586,	 347.542921,	 0.010406 
0.310000,	 0.000182,	 0.998907,	 3.224820,	 0.002098,	 300.482926,	 86173.534610,	 347.526982,	 0.009279 
0.330000,	 0.000182,	 0.998984,	 2.915555,	 0.001531,	 300.459360,	 86173.473369,	 347.513354,	 0.008390 
0.350000,	 0.000182,	 0.999051,	 2.670440,	 0.001154,	 300.438972,	 86173.414066,	 347.501563,	 0.007685 
0.370000,	 0.000182,	 0.999111,	 2.474724,	 0.000891,	 300.420960,	 86173.359204,	 347.491147,	 0.007122 
0.390000,	 0.000182,	 0.999168,	 2.317195,	 0.000700,	 300.403633,	 86173.309429,	 347.481126,	 0.006669 
0.410000,	 0.000182,	 0.999271,	 2.189487,	 0.000556,	 300.372533,	 86173.263076,	 347.463138,	 0.006301 
0.430000,	 0.000182,	 0.999298,	 2.084476,	 0.000452,	 300.364052,	 86173.218907,	 347.458233,	 0.005999 
0.450000,	 0.000182,	 0.999386,	 2.002442,	 0.000359,	 300.337505,	 86173.184478,	 347.442878,	 0.005763 
0.470000,	 0.000182,	 0.999467,	 1.935254,	 0.000280,	 300.313012,	 86173.152658,	 347.428710,	 0.005570 
0.490000,	 0.000182,	 0.999532,	 1.882516,	 0.000216,	 300.293367,	 86173.121718,	 347.417347,	 0.005419 
0.510000,	 0.000182,	 0.999593,	 1.842218,	 0.000162,	 300.275001,	 86173.092803,	 347.406722,	 0.005303 
0.530000,	 0.000182,	 0.999646,	 1.812499,	 0.000111,	 300.259116,	 86173.066746,	 347.397533,	 0.005217 
0.550000,	 0.000182,	 0.999697,	 1.792505,	 0.000064,	 300.243545,	 86173.042691,	 347.388525,	 0.005160 
0.570000,	 0.000182,	 0.999738,	 1.781705,	 0.000021,	 300.231202,	 86173.020403,	 347.381384,	 0.005129 
0.590000,	 0.000182,	 0.999764,	 1.779817,	 -0.000022,	 300.223321,	 86172.999592,	 347.376825,	 0.005124 
0.610000,	 0.000182,	 0.999776,	 1.786776,	 -0.000065,	 300.219714,	 86172.980051,	 347.374738,	 0.005144 
0.630000,	 0.000182,	 0.999778,	 1.802731,	 -0.000109,	 300.219163,	 86172.961615,	 347.374420,	 0.005190 
0.650000,	 0.000182,	 0.999774,	 1.828062,	 -0.000157,	 300.220185,	 86172.944145,	 347.375011,	 0.005263 
0.670000,	 0.000182,	 0.999769,	 1.863402,	 -0.000208,	 300.221630,	 86172.927472,	 347.375847,	 0.005364 
0.690000,	 0.000182,	 0.999765,	 1.909670,	 -0.000266,	 300.222861,	 86172.911405,	 347.376559,	 0.005497 
0.710000,	 0.000182,	 0.999762,	 1.968128,	 -0.000332,	 300.223662,	 86172.895732,	 347.377022,	 0.005666 
0.730000,	 0.000182,	 0.999760,	 2.040459,	 -0.000408,	 300.224047,	 86172.880186,	 347.377245,	 0.005874 
0.750000,	 0.000182,	 0.999760,	 2.128886,	 -0.000499,	 300.224098,	 86172.864420,	 347.377275,	 0.006128 
0.770000,	 0.000182,	 0.999761,	 2.236328,	 -0.000609,	 300.223848,	 86172.847938,	 347.377130,	 0.006438 
0.790000,	 0.000182,	 0.999763,	 2.366634,	 -0.000746,	 300.223219,	 86172.830036,	 347.376766,	 0.006813 
0.810000,	 0.000182,	 0.999766,	 2.524906,	 -0.000920,	 300.221992,	 86172.809663,	 347.376056,	 0.007269 
0.830000,	 0.000182,	 0.999773,	 2.717965,	 -0.001144,	 300.219795,	 86172.785205,	 347.374785,	 0.007824 
0.850000,	 0.000182,	 0.999785,	 2.955003,	 -0.001443,	 300.216108,	 86172.754124,	 347.372652,	 0.008507 
0.870000,	 0.000182,	 0.999804,	 3.248500,	 -0.001851,	 300.210289,	 86172.712375,	 347.369285,	 0.009352 
0.890000,	 0.000182,	 0.999832,	 3.615440,	 -0.002425,	 300.201650,	 86172.653425,	 347.364288,	 0.010408 
0.910000,	 0.000182,	 0.999871,	 4.078764,	 -0.003265,	 300.189683,	 86172.566665,	 347.357364,	 0.011742 
0.930000,	 0.000182,	 0.999920,	 4.668644,	 -0.004547,	 300.174564,	 86172.434882,	 347.348617,	 0.013441 
0.950000,	 0.000182,	 0.999972,	 5.422235,	 -0.006617,	 300.158299,	 86172.230059,	 347.339206,	 0.015611 
0.970000,	 0.000182,	 1.000006,	 6.378617,	 -0.010298,	 300.146824,	 86171.904598,	 347.332567,	 0.018365 
0.990000,	 0.000182,	 0.999972,	 7.562934,	 -0.017907,	 300.155151,	 86171.358454,	 347.337384,	 0.021774 
0.010000,	 0.000244,	 0.999325,	 9.724967,	 0.001468,	 300.358891,	 86174.008807,	 347.455248,	 0.027989 
0.030000,	 0.000244,	 0.999308,	 9.570912,	 0.001244,	 300.361070,	 86173.175748,	 347.456508,	 0.027546 
0.050000,	 0.000244,	 0.999297,	 9.395405,	 0.001642,	 300.364387,	 86173.240365,	 347.458426,	 0.027040 
0.070000,	 0.000244,	 0.999282,	 9.194834,	 0.002319,	 300.369112,	 86173.274218,	 347.461159,	 0.026463 
0.090000,	 0.000244,	 0.999261,	 8.961788,	 0.001935,	 300.375318,	 86173.253620,	 347.464749,	 0.025792 
0.110000,	 0.000244,	 0.999234,	 8.687963,	 0.002807,	 300.383643,	 86173.334655,	 347.469564,	 0.025004 
0.130000,	 0.000244,	 0.999199,	 8.363575,	 0.003879,	 300.394521,	 86173.410299,	 347.475855,	 0.024070 
0.150000,	 0.000244,	 0.999154,	 7.978609,	 0.005474,	 300.408615,	 86173.517774,	 347.484007,	 0.022961 
0.170000,	 0.000244,	 0.999091,	 7.525956,	 0.008186,	 300.427982,	 86173.679740,	 347.495208,	 0.021658 
0.190000,	 0.000244,	 0.998980,	 7.006195,	 0.013864,	 300.462190,	 86173.958018,	 347.514991,	 0.020161 
0.210000,	 0.000244,	 0.998715,	 6.435596,	 0.030566,	 300.544936,	 86174.776056,	 347.562839,	 0.018517 
0.230000,	 0.000244,	 0.998624,	 5.849362,	 0.016897,	 300.568385,	 86173.640779,	 347.576398,	 0.016829 
0.250000,	 0.000244,	 0.998639,	 5.285854,	 0.009438,	 300.563222,	 86173.506107,	 347.573412,	 0.015208 
0.270000,	 0.000244,	 0.998692,	 4.776351,	 0.006174,	 300.547589,	 86173.520219,	 347.564373,	 0.013742 
0.290000,	 0.000244,	 0.998754,	 4.333898,	 0.004337,	 300.528745,	 86173.506929,	 347.553477,	 0.012470 
0.310000,	 0.000244,	 0.998816,	 3.958985,	 0.003177,	 300.509856,	 86173.474808,	 347.542555,	 0.011391 
0.330000,	 0.000244,	 0.998875,	 3.645566,	 0.002401,	 300.492142,	 86173.433192,	 347.532311,	 0.010490 
0.350000,	 0.000244,	 0.998928,	 3.385220,	 0.001856,	 300.475931,	 86173.387825,	 347.522937,	 0.009741 
0.370000,	 0.000244,	 0.998977,	 3.169451,	 0.001461,	 300.461169,	 86173.342268,	 347.514400,	 0.009120 
0.390000,	 0.000244,	 0.999021,	 2.990713,	 0.001164,	 300.447564,	 86173.298358,	 347.506533,	 0.008606 
0.410000,	 0.000244,	 0.999067,	 2.842721,	 0.000935,	 300.433697,	 86173.256955,	 347.498513,	 0.008181 
0.430000,	 0.000244,	 0.999109,	 2.720463,	 0.000753,	 300.420876,	 86173.218641,	 347.491098,	 0.007829 
0.450000,	 0.000244,	 0.999149,	 2.620582,	 0.000604,	 300.408697,	 86173.181677,	 347.484054,	 0.007542 
0.470000,	 0.000244,	 0.999187,	 2.539414,	 0.000478,	 300.397254,	 86173.147926,	 347.477436,	 0.007308 
0.490000,	 0.000244,	 0.999222,	 2.474698,	 0.000371,	 300.386525,	 86173.116518,	 347.471231,	 0.007122 
0.510000,	 0.000244,	 0.999255,	 2.424579,	 0.000277,	 300.376569,	 86173.087223,	 347.465472,	 0.006978 
0.530000,	 0.000244,	 0.999285,	 2.387584,	 0.000192,	 300.367426,	 86173.059883,	 347.460184,	 0.006872 
0.550000,	 0.000244,	 0.999313,	 2.362716,	 0.000113,	 300.359087,	 86173.034278,	 347.455361,	 0.006800 
0.570000,	 0.000244,	 0.999337,	 2.349348,	 0.000038,	 300.351594,	 86173.010146,	 347.451027,	 0.006762 
0.590000,	 0.000244,	 0.999360,	 2.347160,	 -0.000035,	 300.344764,	 86172.987214,	 347.447076,	 0.006755 