TITLE = "Final State"
VARIABLES = "X", "Y", "rho", "u", "v", "T", "p", "c", "M"
ZONE I=50, J=50, DATAPACKING=POINT
0.015000,	 0.010000,	 1.000000,	 100.000000,	 0.000000,	 300.000000,	 86129.212707,	 347.247603,	 0.287979 
0.045000,	 0.010000,	 1.000000,	 100.000000,	 0.000000,	 300.000000,	 86129.212707,	 347.247603,	 0.287979 
0.075000,	 0.010000,	 1.000000,	 100.000000,	 0.000000,	 300.000000,	 86129.212708,	 347.247603,	 0.287979 
0.105000,	 0.010000,	 1.000000,	 100.000000,	 0.000000,	 300.000000,	 86129.212715,	 347.247603,	 0.287979 
0.135000,	 0.010000,	 1.000000,	 100.000000,	 0.000000,	 300.000000,	 86129.212792,	 347.247603,	 0.287979 
0.165000,	 0.010000,	 1.000000,	 99.999997,	 0.000000,	 300.000001,	 86129.213560,	 347.247604,	 0.287979 
0.195000,	 0.010000,	 1.000000,	 99.999973,	 0.000002,	 300.000010,	 86129.220203,	 347.247609,	 0.287979 
0.225000,	 0.010000,	 1.000000,	 99.999795,	 0.000012,	 300.000074,	 86129.269680,	 347.247646,	 0.287978 
0.255000,	 0.010000,	 1.000003,	 99.998626,	 0.000084,	 300.000493,	 86129.593362,	 347.247888,	 0.287975 
0.285000,	 0.010000,	 1.000016,	 99.992029,	 0.000522,	 300.002836,	 86131.415062,	 347.249244,	 0.287955 
0.315000,	 0.010000,	 1.000081,	 99.960169,	 0.002798,	 300.014018,	 86140.179455,	 347.255716,	 0.287858 
0.345000,	 0.010000,	 1.000344,	 99.829700,	 0.012789,	 300.059096,	 86175.854661,	 347.281803,	 0.287460 
0.375000,	 0.010000,	 1.001246,	 99.382639,	 0.049311,	 300.210252,	 86296.972926,	 347.369264,	 0.286101 
0.405000,	 0.010000,	 1.003766,	 98.124498,	 0.158140,	 300.622398,	 86632.941986,	 347.607627,	 0.282286 
0.435000,	 0.010000,	 1.009366,	 95.290751,	 0.414095,	 301.505969,	 87372.342206,	 348.118086,	 0.273734 
0.465000,	 0.010000,	 1.018608,	 90.290295,	 0.890777,	 302.939534,	 88591.505980,	 348.944699,	 0.258765 
0.495000,	 0.011238,	 1.038470,	 84.782015,	 7.047719,	 304.692927,	 90841.742597,	 349.953077,	 0.243102 
0.525000,	 0.016188,	 1.061667,	 83.768247,	 19.035108,	 306.062539,	 93288.380783,	 350.738724,	 0.244922 
0.555000,	 0.023613,	 1.059326,	 87.796324,	 21.426986,	 306.815037,	 93311.586951,	 351.169630,	 0.257349 
0.585000,	 0.031037,	 1.063154,	 90.180653,	 22.386064,	 307.418938,	 93833.073215,	 351.515061,	 0.264335 
0.615000,	 0.038462,	 1.066929,	 91.890767,	 22.950971,	 307.853093,	 94299.291200,	 351.763189,	 0.269254 
0.645000,	 0.045888,	 1.069543,	 92.982273,	 23.278194,	 308.132870,	 94616.158856,	 351.922994,	 0.272366 
0.675000,	 0.053312,	 1.071004,	 93.577322,	 23.443122,	 308.286666,	 94792.695913,	 352.010809,	 0.274052 
0.705000,	 0.060737,	 1.071686,	 93.853354,	 23.513971,	 308.357957,	 94875.005163,	 352.051508,	 0.274829 
0.735000,	 0.068162,	 1.071954,	 93.962760,	 23.539985,	 308.385756,	 94907.346134,	 352.067377,	 0.275136 
0.765000,	 0.075588,	 1.072043,	 94.000028,	 23.548208,	 308.394689,	 94917.948441,	 352.072476,	 0.275241 
0.795000,	 0.083013,	 1.072066,	 94.011024,	 23.550429,	 308.396752,	 94920.615854,	 352.073653,	 0.275272 
0.825000,	 0.090438,	 1.072068,	 94.013889,	 23.550863,	 308.396674,	 94920.807856,	 352.073609,	 0.275280 
0.855000,	 0.097863,	 1.072065,	 94.014610,	 23.550774,	 308.396007,	 94920.321528,	 352.073228,	 0.275282 
0.885000,	 0.105288,	 1.072061,	 94.014861,	 23.550486,	 308.395183,	 94919.658711,	 352.072758,	 0.275283 
0.915000,	 0.112712,	 1.072056,	 94.015041,	 23.550074,	 308.394306,	 94918.940754,	 352.072257,	 0.275284 
0.945000,	 0.120138,	 1.072050,	 94.015232,	 23.549555,	 308.393400,	 94918.194491,	 352.071740,	 0.275284 
0.975000,	 0.127562,	 1.072045,	 94.015448,	 23.548936,	 308.392470,	 94917.426699,	 352.071209,	 0.275285 
1.005000,	 0.134988,	 1.072039,	 94.015689,	 23.548223,	 308.391519,	 94916.640501,	 352.070666,	 0.275285 
1.035000,	 0.142412,	 1.072034,	 94.015955,	 23.547420,	 308.390549,	 94915.838469,	 352.070113,	 0.275286 
1.065000,	 0.149838,	 1.072028,	 94.016244,	 23.546534,	 308.389562,	 94915.023119,	 352.069549,	 0.275287 
1.095000,	 0.157262,	 1.072022,	 94.016554,	 23.545570,	 308.388561,	 94914.196977,	 352.068978,	 0.275287 
1.125000,	 0.164687,	 1.072016,	 94.016884,	 23.544533,	 308.387547,	 94913.362585,	 352.068399,	 0.275288 
1.155000,	 0.172113,	 1.072010,	 94.017232,	 23.543428,	 308.386524,	 94912.522490,	 352.067815,	 0.275289 
1.185000,	 0.179538,	 1.072004,	 94.017597,	 23.542263,	 308.385492,	 94911.679229,	 352.067226,	 0.275289 
1.215000,	 0.186963,	 1.071998,	 94.017977,	 23.541043,	 308.384455,	 94910.835215,	 352.066634,	 0.275290 
1.245000,	 0.194387,	 1.071992,	 94.018374,	 23.539773,	 308.383413,	 94909.992130,	 352.066039,	 0.275291 
1.275000,	 0.201813,	 1.071987,	 94.018802,	 23.538461,	 308.382363,	 94909.147873,	 352.065440,	 0.275291 
1.305000,	 0.209237,	 1.071981,	 94.019327,	 23.537121,	 308.381282,	 94908.284039,	 352.064823,	 0.275292 
1.335000,	 0.216663,	 1.071974,	 94.020203,	 23.535794,	 308.380084,	 94907.325370,	 352.064139,	 0.275294 
1.365000,	 0.224087,	 1.071965,	 94.022158,	 23.534614,	 308.378511,	 94906.043451,	 352.063241,	 0.275300 
1.395000,	 0.231513,	 1.071950,	 94.026724,	 23.533957,	 308.376006,	 94903.920456,	 352.061811,	 0.275313 
1.425000,	 0.238938,	 1.071922,	 94.035741,	 23.534601,	 308.371812,	 94900.163202,	 352.059417,	 0.275340 
1.455000,	 0.246362,	 1.071876,	 94.048462,	 23.537471,	 308.365695,	 94894.229349,	 352.055925,	 0.275380 
1.485000,	 0.253787,	 1.071816,	 94.056811,	 23.541999,	 308.359060,	 94886.893667,	 352.052138,	 0.275409 
0.015000,	 0.030000,	 1.000000,	 100.000000,	 0.000000,	 300.000000,	 86129.212707,	 347.247603,	 0.287979 
0.045000,	 0.030000,	 1.000000,	 100.000000,	 0.000000,	 300.000000,	 86129.212707,	 347.247603,	 0.287979 
0.075000,	 0.030000,	 1.000000,	 100.000000,	 0.000000,	 300.000000,	 86129.212707,	 347.247603,	 0.287979 
0.105000,	 0.030000,	 1.000000,	 100.000000,	 0.000000,	 300.000000,	 86129.212710,	 347.247603,	 0.287979 
0.135000,	 0.030000,	 1.000000,	 100.000000,	 0.000000,	 300.000000,	 86129.212740,	 347.247603,	 0.287979 
0.165000,	 0.030000,	 1.000000,	 99.999999,	 0.000000,	 300.000000,	 86129.213060,	 347.247603,	 0.287979 
0.195000,	 0.030000,	 1.000000,	 99.999989,	 0.000002,	 300.000004,	 86129.216043,	 347.247605,	 0.287979 
0.225000,	 0.030000,	 1.000000,	 99.999913,	 0.000019,	 300.000035,	 86129.240128,	 347.247623,	 0.287979 
0.255000,	 0.030000,	 1.000001,	 99.999376,	 0.000140,	 300.000248,	 86129.409389,	 347.247746,	 0.287977 
0.285000,	 0.030000,	 1.000009,	 99.996132,	 0.000908,	 300.001527,	 86130.434139,	 347.248487,	 0.287967 
0.315000,	 0.030000,	 1.000049,	 99.979345,	 0.005068,	 300.008101,	 86135.742610,	 347.252291,	 0.287916 
0.345000,	 0.030000,	 1.000224,	 99.905624,	 0.024198,	 300.036675,	 86159.048038,	 347.268828,	 0.287690 
0.375000,	 0.030000,	 1.000872,	 99.634192,	 0.097911,	 300.140328,	 86244.629658,	 347.328808,	 0.286859 
0.405000,	 0.030000,	 1.002838,	 98.810601,	 0.331429,	 300.447789,	 86502.582867,	 347.506662,	 0.284343 
0.435000,	 0.030000,	 1.007611,	 96.801292,	 0.922668,	 301.170948,	 87123.514710,	 347.924625,	 0.278238 
0.465000,	 0.030000,	 1.016390,	 92.958221,	 2.088870,	 302.466484,	 88260.563983,	 348.672149,	 0.266674 
0.495000,	 0.031213,	 1.034569,	 88.302048,	 7.679108,	 304.281573,	 90378.356899,	 349.716768,	 0.253449 
0.525000,	 0.036062,	 1.056160,	 86.835870,	 17.574113,	 305.973923,	 92777.631839,	 350.687945,	 0.252636 
0.555000,	 0.043338,	 1.058378,	 89.605479,	 20.550413,	 306.945953,	 93267.857681,	 351.244542,	 0.261732 
0.585000,	 0.050613,	 1.062630,	 91.492535,	 21.863417,	 307.605658,	 93843.850568,	 351.621797,	 0.267528 
0.615000,	 0.057887,	 1.066068,	 92.761434,	 22.571191,	 308.023566,	 94275.350333,	 351.860570,	 0.271323 
0.645000,	 0.065162,	 1.068210,	 93.496786,	 22.950457,	 308.264563,	 94538.682203,	 351.998190,	 0.273503 
0.675000,	 0.072437,	 1.069324,	 93.857879,	 23.135892,	 308.386967,	 94674.828759,	 352.068068,	 0.274570 
0.705000,	 0.079712,	 1.069836,	 94.006904,	 23.220726,	 308.442878,	 94737.338936,	 352.099982,	 0.275014 
0.735000,	 0.086987,	 1.070065,	 94.057311,	 23.261559,	 308.467949,	 94765.330490,	 352.114291,	 0.275169 
0.765000,	 0.094262,	 1.070183,	 94.069511,	 23.285934,	 308.480986,	 94779.781113,	 352.121732,	 0.275214 
0.795000,	 0.101538,	 1.070263,	 94.069281,	 23.304753,	 308.489927,	 94789.609989,	 352.126835,	 0.275222 
0.825000,	 0.108812,	 1.070331,	 94.065694,	 23.321599,	 308.497536,	 94797.934460,	 352.131177,	 0.275220 
0.855000,	 0.116087,	 1.070393,	 94.061436,	 23.337465,	 308.504619,	 94805.669177,	 352.135220,	 0.275216 
0.885000,	 0.123363,	 1.070453,	 94.057182,	 23.352590,	 308.511377,	 94813.042474,	 352.139077,	 0.275212 
0.915000,	 0.130637,	 1.070510,	 94.053079,	 23.367024,	 308.517852,	 94820.103386,	 352.142772,	 0.275207 
0.945000,	 0.137912,	 1.070565,	 94.049154,	 23.380777,	 308.524054,	 94826.861288,	 352.146312,	 0.275203 
0.975000,	 0.145187,	 1.070618,	 94.045411,	 23.393854,	 308.529983,	 94833.318244,	 352.149695,	 0.275199 
1.005000,	 0.152463,	 1.070667,	 94.041850,	 23.406260,	 308.535640,	 94839.475406,	 352.152924,	 0.275196 
1.035000,	 0.159738,	 1.070715,	 94.038470,	 23.418000,	 308.541027,	 94845.334104,	 352.155998,	 0.275192 
1.065000,	 0.167013,	 1.070760,	 94.035270,	 23.429079,	 308.546144,	 94850.896017,	 352.158918,	 0.275188 
1.095000,	 0.174288,	 1.070803,	 94.032249,	 23.439505,	 308.550993,	 94856.163208,	 352.161685,	 0.275185 
1.125000,	 0.181562,	 1.070843,	 94.029404,	 23.449285,	 308.555576,	 94861.138137,	 352.164301,	 0.275182 
1.155000,	 0.188837,	 1.070881,	 94.026735,	 23.458428,	 308.559896,	 94865.823668,	 352.166766,	 0.275179 
1.185000,	 0.196112,	 1.070916,	 94.024238,	 23.466944,	 308.563956,	 94870.223071,	 352.169083,	 0.275176 
1.215000,	 0.203387,	 1.070950,	 94.021913,	 23.474843,	 308.567758,	 94874.339918,	 352.171252,	 0.275173 
1.245000,	 0.210663,	 1.070981,	 94.019759,	 23.482137,	 308.571305,	 94878.177415,	 352.173277,	 0.275171 
1.275000,	 0.217938,	 1.071009,	 94.017792,	 23.488837,	 308.574595,	 94881.734786,	 352.175154,	 0.275169 
1.305000,	 0.225213,	 1.071036,	 94.016090,	 23.494960,	 308.577603,	 94884.991704,	 352.176870,	 0.275167 
1.335000,	 0.232488,	 1.071059,	 94.014977,	 23.500531,	 308.580220,	 94887.855576,	 352.178364,	 0.275166 
1.365000,	 0.239762,	 1.071077,	 94.015459,	 23.505656,	 308.582109,	 94890.031695,	 352.179442,	 0.275170 
1.395000,	 0.247037,	 1.071085,	 94.019890,	 23.510748,	 308.582507,	 94890.837175,	 352.179669,	 0.275186 
1.425000,	 0.254312,	 1.071074,	 94.031837,	 23.517142,	 308.580335,	 94889.254407,	 352.178429,	 0.275224 
1.455000,	 0.261588,	 1.071042,	 94.052643,	 23.527884,	 308.575342,	 94884.851690,	 352.175580,	 0.275291 
1.485000,	 0.268863,	 1.071002,	 94.073755,	 23.546506,	 308.570204,	 94879.756661,	 352.172648,	 0.275364 
0.015000,	 0.050000,	 1.000000,	 100.000000,	 0.000000,	 300.000000,	 86129.212707,	 347.247603,	 0.287979 
0.045000,	 0.050000,	 1.000000,	 100.000000,	 0.000000,	 300.000000,	 86129.212707,	 347.247603,	 0.287979 
0.075000,	 0.050000,	 1.000000,	 100.000000,	 0.000000,	 300.000000,	 86129.212707,	 347.247603,	 0.287979 
0.105000,	 0.050000,	 1.000000,	 100.000000,	 0.000000,	 300.000000,	 86129.212708,	 347.247603,	 0.287979 
0.135000,	 0.050000,	 1.000000,	 100.000000,	 0.000000,	 300.000000,	 86129.212717,	 347.247603,	 0.287979 
0.165000,	 0.050000,	 1.000000,	 100.000000,	 0.000000,	 300.000000,	 86129.212821,	 347.247603,	 0.287979 
0.195000,	 0.050000,	 1.000000,	 99.999997,	 0.000001,	 300.000001,	 86129.213877,	 347.247604,	 0.287979 
0.225000,	 0.050000,	 1.000000,	 99.999970,	 0.000010,	 300.000013,	 86129.223200,	 347.247611,	 0.287979 
0.255000,	 0.050000,	 1.000001,	 99.999765,	 0.000082,	 300.000101,	 86129.294603,	 347.247662,	 0.287978 
0.285000,	 0.050000,	 1.000004,	 99.998421,	 0.000576,	 300.000678,	 86129.766091,	 347.247996,	 0.287974 
0.315000,	 0.050000,	 1.000024,	 99.990873,	 0.003501,	 300.003916,	 86132.433073,	 347.249869,	 0.287951 
0.345000,	 0.050000,	 1.000122,	 99.954864,	 0.018238,	 300.019311,	 86145.245568,	 347.258779,	 0.287840 
0.375000,	 0.050000,	 1.000517,	 99.810567,	 0.080804,	 300.080637,	 86196.919149,	 347.294268,	 0.287395 
0.405000,	 0.050000,	 1.001843,	 99.332330,	 0.301163,	 300.281758,	 86369.029686,	 347.410631,	 0.285923 
0.435000,	 0.050000,	 1.005435,	 98.050253,	 0.930282,	 300.810771,	 86831.360066,	 347.716517,	 0.281996 
0.465000,	 0.050000,	 1.012950,	 95.340677,	 2.345577,	 301.885622,	 87792.930843,	 348.337190,	 0.273785 
0.495000,	 0.051187,	 1.029167,	 91.657055,	 7.365868,	 303.628277,	 89713.393183,	 349.341143,	 0.263217 
0.525000,	 0.055938,	 1.049185,	 89.949287,	 15.607679,	 305.433683,	 92002.196780,	 350.378213,	 0.260557 
0.555000,	 0.063063,	 1.054262,	 91.664629,	 18.802780,	 306.455224,	 92756.579239,	 350.963654,	 0.266618 
0.585000,	 0.070187,	 1.058644,	 92.975268,	 20.259048,	 307.084320,	 93333.349325,	 351.323701,	 0.270852 
0.615000,	 0.077313,	 1.061633,	 93.802975,	 20.999980,	 307.451800,	 93708.852854,	 351.533849,	 0.273444 
0.645000,	 0.084438,	 1.063363,	 94.234270,	 21.384276,	 307.652213,	 93922.785299,	 351.648404,	 0.274792 
0.675000,	 0.091563,	 1.064282,	 94.417361,	 21.586585,	 307.756298,	 94035.707903,	 351.707884,	 0.275381 
0.705000,	 0.098688,	 1.064789,	 94.475194,	 21.706143,	 307.813286,	 94097.922639,	 351.740446,	 0.275591 
0.735000,	 0.105813,	 1.065124,	 94.480953,	 21.793225,	 307.850868,	 94139.022135,	 351.761918,	 0.275646 
0.765000,	 0.112937,	 1.065397,	 94.468689,	 21.868926,	 307.881527,	 94172.543430,	 351.779433,	 0.275647 
0.795000,	 0.120063,	 1.065649,	 94.451289,	 21.940576,	 307.909861,	 94203.511345,	 351.795620,	 0.275632 
0.825000,	 0.127188,	 1.065893,	 94.432818,	 22.010298,	 307.937279,	 94233.471616,	 351.811282,	 0.275614 
0.855000,	 0.134313,	 1.066132,	 94.414365,	 22.078595,	 307.964137,	 94262.817652,	 351.826624,	 0.275595 
0.885000,	 0.141438,	 1.066367,	 94.396185,	 22.145548,	 307.990504,	 94291.625201,	 351.841685,	 0.275576 
0.915000,	 0.148563,	 1.066597,	 94.378335,	 22.211143,	 308.016382,	 94319.896000,	 351.856466,	 0.275558 
0.945000,	 0.155688,	 1.066822,	 94.360835,	 22.275350,	 308.041760,	 94347.617149,	 351.870961,	 0.275540 
0.975000,	 0.162812,	 1.067043,	 94.343693,	 22.338135,	 308.066625,	 94374.773400,	 351.885162,	 0.275522 
1.005000,	 0.169938,	 1.067259,	 94.326920,	 22.399467,	 308.090963,	 94401.349363,	 351.899062,	 0.275505 
1.035000,	 0.177063,	 1.067471,	 94.310525,	 22.459313,	 308.114760,	 94427.329883,	 351.912652,	 0.275489 
1.065000,	 0.184188,	 1.067677,	 94.294517,	 22.517643,	 308.138003,	 94452.700127,	 351.925925,	 0.275472 
1.095000,	 0.191313,	 1.067878,	 94.278905,	 22.574427,	 308.160680,	 94477.445646,	 351.938875,	 0.275457 
1.125000,	 0.198438,	 1.068074,	 94.263697,	 22.629636,	 308.182778,	 94501.552424,	 351.951493,	 0.275441 
1.155000,	 0.205563,	 1.068265,	 94.248902,	 22.683242,	 308.204285,	 94525.006938,	 351.963774,	 0.275426 
1.185000,	 0.212688,	 1.068450,	 94.234527,	 22.735219,	 308.225189,	 94547.796205,	 351.975709,	 0.275412 
1.215000,	 0.219813,	 1.068629,	 94.220581,	 22.785543,	 308.245479,	 94569.907762,	 351.987294,	 0.275398 
1.245000,	 0.226938,	 1.068803,	 94.207072,	 22.834191,	 308.265142,	 94591.329167,	 351.998521,	 0.275384 
1.275000,	 0.234063,	 1.068971,	 94.194023,	 22.881140,	 308.284165,	 94612.044800,	 352.009381,	 0.275371 
1.305000,	 0.241188,	 1.069133,	 94.181516,	 22.926363,	 308.302508,	 94632.020430,	 352.019854,	 0.275359 
1.335000,	 0.248312,	 1.069288,	 94.169879,	 22.969818,	 308.320048,	 94651.144865,	 352.029867,	 0.275348 
1.365000,	 0.255437,	 1.069434,	 94.160235,	 23.011443,	 308.336384,	 94669.065385,	 352.039193,	 0.275342 
1.395000,	 0.262562,	 1.069564,	 94.155577,	 23.051296,	 308.350518,	 94684.890318,	 352.047261,	 0.275350 
1.425000,	 0.269687,	 1.069666,	 94.161580,	 23.090324,	 308.360752,	 94697.074731,	 352.053103,	 0.275388 
1.455000,	 0.276812,	 1.069732,	 94.183963,	 23.132510,	 308.365965,	 94704.511277,	 352.056080,	 0.275476 
1.485000,	 0.283937,	 1.069784,	 94.218931,	 23.187207,	 308.369310,	 94710.113398,	 352.057989,	 0.275608 
0.015000,	 0.070000,	 1.000000,	 100.000000,	 0.000000,	 300.000000,	 86129.212707,	 347.247603,	 0.287979 
0.045000,	 0.070000,	 1.000000,	 100.000000,	 0.000000,	 300.000000,	 86129.212707,	 347.247603,	 0.287979 
0.075000,	 0.070000,	 1.000000,	 100.000000,	 0.000000,	 300.000000,	 86129.212707,	 347.247603,	 0.287979 
0.105000,	 0.070000,	 1.000000,	 100.000000,	 0.000000,	 300.000000,	 86129.212707,	 347.247603,	 0.287979 
0.135000,	 0.070000,	 1.000000,	 100.000000,	 0.000000,	 300.000000,	 86129.212709,	 347.247603,	 0.287979 
0.165000,	 0.070000,	 1.000000,	 100.000000,	 0.000000,	 300.000000,	 86129.212737,	 347.247603,	 0.287979 
0.195000,	 0.070000,	 1.000000,	 99.999999,	 0.000000,	 300.000000,	 86129.213040,	 347.247603,	 0.287979 
0.225000,	 0.070000,	 1.000000,	 99.999991,	 0.000004,	 300.000004,	 86129.215986,	 347.247605,	 0.287979 
0.255000,	 0.070000,	 1.000000,	 99.999926,	 0.000034,	 300.000034,	 86129.240756,	 347.247623,	 0.287979 
0.285000,	 0.070000,	 1.000002,	 99.999458,	 0.000263,	 300.000251,	 86129.420447,	 347.247748,	 0.287977 
0.315000,	 0.070000,	 1.000010,	 99.996584,	 0.001749,	 300.001588,	 86130.538472,	 347.248522,	 0.287968 
0.345000,	 0.070000,	 1.000055,	 99.981571,	 0.010001,	 300.008596,	 86136.459581,	 347.252578,	 0.287922 
0.375000,	 0.070000,	 1.000259,	 99.915605,	 0.048778,	 300.039485,	 86162.882425,	 347.270454,	 0.287717 
0.405000,	 0.070000,	 1.001020,	 99.675094,	 0.201074,	 300.152308,	 86260.864001,	 347.335739,	 0.286971 
0.435000,	 0.070000,	 1.003338,	 98.961727,	 0.692011,	 300.486656,	 86556.920257,	 347.529139,	 0.284765 
0.465000,	 0.070000,	 1.008895,	 97.281092,	 1.956882,	 301.265053,	 87261.783176,	 347.978977,	 0.279617 
0.495000,	 0.071163,	 1.021901,	 94.686347,	 6.095320,	 302.738148,	 88818.890971,	 348.828696,	 0.272003 
0.525000,	 0.075813,	 1.038737,	 93.032691,	 12.637767,	 304.428676,	 90786.276150,	 349.801292,	 0.268401 
0.555000,	 0.082787,	 1.044658,	 93.922759,	 15.563572,	 305.370253,	 91586.231718,	 350.341829,	 0.271745 
0.585000,	 0.089763,	 1.048567,	 94.693489,	 16.914582,	 305.906789,	 92090.430614,	 350.649470,	 0.274326 
0.615000,	 0.096738,	 1.050957,	 95.145250,	 17.588730,	 306.203543,	 92389.891825,	 350.819508,	 0.275804 
0.645000,	 0.103712,	 1.052337,	 95.345917,	 17.953699,	 306.366946,	 92560.568265,	 350.913101,	 0.276483 
0.675000,	 0.110688,	 1.053175,	 95.405106,	 18.180974,	 306.464063,	 92663.662366,	 350.968716,	 0.276726 
0.705000,	 0.117663,	 1.053777,	 95.400510,	 18.353601,	 306.533027,	 92737.466829,	 351.008203,	 0.276774 
0.735000,	 0.124637,	 1.054293,	 95.372154,	 18.507394,	 306.591843,	 92800.638723,	 351.041877,	 0.276751 
0.765000,	 0.131613,	 1.054781,	 95.336392,	 18.655374,	 306.647490,	 92860.499383,	 351.073732,	 0.276707 
0.795000,	 0.138588,	 1.055262,	 95.298724,	 18.801489,	 306.702204,	 92919.411552,	 351.105051,	 0.276657 
0.825000,	 0.145562,	 1.055740,	 95.260710,	 18.946710,	 306.756576,	 92977.999856,	 351.136172,	 0.276607 
0.855000,	 0.152537,	 1.056217,	 95.222737,	 19.091192,	 306.810720,	 93036.385096,	 351.167159,	 0.276557 
0.885000,	 0.159513,	 1.056692,	 95.184902,	 19.234896,	 306.864635,	 93094.564549,	 351.198013,	 0.276508 
0.915000,	 0.166488,	 1.057164,	 95.147239,	 19.377747,	 306.918296,	 93152.509008,	 351.228718,	 0.276459 
0.945000,	 0.173463,	 1.057635,	 95.109772,	 19.519659,	 306.971672,	 93210.183672,	 351.259258,	 0.276412 
0.975000,	 0.180438,	 1.058103,	 95.072524,	 19.660543,	 307.024731,	 93267.551984,	 351.289613,	 0.276365 
1.005000,	 0.187413,	 1.058568,	 95.035519,	 19.800309,	 307.077439,	 93324.576252,	 351.319766,	 0.276319 
1.035000,	 0.194387,	 1.059030,	 94.998781,	 19.938863,	 307.129763,	 93381.217752,	 351.349695,	 0.276274 
1.065000,	 0.201362,	 1.059489,	 94.962334,	 20.076111,	 307.181667,	 93437.436772,	 351.379383,	 0.276229 
1.095000,	 0.208338,	 1.059944,	 94.926204,	 20.211958,	 307.233117,	 93493.192644,	 351.408808,	 0.276186 
1.125000,	 0.215313,	 1.060394,	 94.890416,	 20.346304,	 307.284075,	 93548.443792,	 351.437949,	 0.276143 
1.155000,	 0.222288,	 1.060840,	 94.854996,	 20.479050,	 307.334504,	 93603.147775,	 351.466786,	 0.276102 
1.185000,	 0.229262,	 1.061281,	 94.819972,	 20.610096,	 307.384368,	 93657.261345,	 351.495297,	 0.276061 
1.215000,	 0.236238,	 1.061717,	 94.785370,	 20.739340,	 307.433627,	 93710.740465,	 351.523459,	 0.276021 
1.245000,	 0.243212,	 1.062147,	 94.751219,	 20.866678,	 307.482242,	 93763.540024,	 351.551252,	 0.275982 
1.275000,	 0.250188,	 1.062572,	 94.717556,	 20.992004,	 307.530170,	 93815.611622,	 351.578649,	 0.275944 
1.305000,	 0.257162,	 1.062989,	 94.684464,	 21.115203,	 307.577350,	 93866.891357,	 351.605617,	 0.275907 
1.335000,	 0.264137,	 1.063399,	 94.652227,	 21.236120,	 307.623645,	 93917.247040,	 351.632077,	 0.275871 
1.365000,	 0.271112,	 1.063799,	 94.621874,	 21.354474,	 307.668641,	 93966.302712,	 351.657793,	 0.275841 
1.395000,	 0.278087,	 1.064181,	 94.596522,	 21.469760,	 307.711200,	 94013.028160,	 351.682114,	 0.275824 
1.425000,	 0.285062,	 1.064528,	 94.583372,	 21.581612,	 307.748941,	 94055.251411,	 351.703680,	 0.275841 
1.455000,	 0.292038,	 1.064821,	 94.593554,	 21.692274,	 307.778941,	 94090.250995,	 351.720822,	 0.275926 
1.485000,	 0.299012,	 1.065069,	 94.634385,	 21.813293,	 307.802322,	 94119.316190,	 351.734182,	 0.276106 
0.015000,	 0.090000,	 1.000000,	 100.000000,	 0.000000,	 300.000000,	 86129.212707,	 347.247603,	 0.287979 
0.045000,	 0.090000,	 1.000000,	 100.000000,	 0.000000,	 300.000000,	 86129.212707,	 347.247603,	 0.287979 
0.075000,	 0.090000,	 1.000000,	 100.000000,	 0.000000,	 300.000000,	 86129.212707,	 347.247603,	 0.287979 
0.105000,	 0.090000,	 1.000000,	 100.000000,	 0.000000,	 300.000000,	 86129.212707,	 347.247603,	 0.287979 
0.135000,	 0.090000,	 1.000000,	 100.000000,	 0.000000,	 300.000000,	 86129.212708,	 347.247603,	 0.287979 
0.165000,	 0.090000,	 1.000000,	 100.000000,	 0.000000,	 300.000000,	 86129.212714,	 347.247603,	 0.287979 
0.195000,	 0.090000,	 1.000000,	 100.000000,	 0.000000,	 300.000000,	 86129.212786,	 347.247603,	 0.287979 
0.225000,	 0.090000,	 1.000000,	 99.999998,	 0.000001,	 300.000001,	 86129.213567,	 347.247604,	 0.287979 
0.255000,	 0.090000,	 1.000000,	 99.999980,	 0.000011,	 300.000010,	 86129.220804,	 347.247609,	 0.287979 
0.285000,	 0.090000,	 1.000001,	 99.999841,	 0.000095,	 300.000079,	 86129.278723,	 347.247649,	 0.287978 
0.315000,	 0.090000,	 1.000004,	 99.998901,	 0.000695,	 300.000549,	 86129.676616,	 347.247921,	 0.287976 
0.345000,	 0.090000,	 1.000022,	 99.993508,	 0.004379,	 300.003275,	 86132.007494,	 347.249499,	 0.287959 
0.375000,	 0.090000,	 1.000111,	 99.967437,	 0.023571,	 300.016608,	 86143.547657,	 347.257215,	 0.287877 
0.405000,	 0.090000,	 1.000484,	 99.862658,	 0.107600,	 300.070919,	 86191.264786,	 347.288645,	 0.287550 
0.435000,	 0.090000,	 1.001761,	 99.518849,	 0.412455,	 300.252065,	 86353.400592,	 347.393454,	 0.286475 
0.465000,	 0.090000,	 1.005258,	 98.617754,	 1.307595,	 300.733665,	 86793.782235,	 347.671949,	 0.283677 
0.495000,	 0.091138,	 1.014254,	 97.041157,	 4.271027,	 301.789214,	 87877.930364,	 348.281564,	 0.278898 
0.525000,	 0.095687,	 1.026461,	 95.737921,	 8.921681,	 303.117344,	 89326.929240,	 349.047091,	 0.275472 
0.555000,	 0.102513,	 1.031509,	 96.095419,	 11.176652,	 303.850449,	 89983.327141,	 349.468930,	 0.276829 
0.585000,	 0.109338,	 1.034453,	 96.465042,	 12.225978,	 304.246810,	 90357.855882,	 349.696790,	 0.278060 
0.615000,	 0.116162,	 1.036169,	 96.659188,	 12.757908,	 304.462390,	 90571.885122,	 349.820660,	 0.278707 
0.645000,	 0.122987,	 1.037224,	 96.719317,	 13.074910,	 304.589991,	 90702.123066,	 349.893958,	 0.278939 
0.675000,	 0.129812,	 1.037982,	 96.710708,	 13.308698,	 304.679948,	 90795.187533,	 349.945623,	 0.278964 
0.705000,	 0.136637,	 1.038631,	 96.674009,	 13.514667,	 304.756364,	 90874.722370,	 349.989505,	 0.278906 
0.735000,	 0.143462,	 1.039249,	 96.627593,	 13.713460,	 304.828961,	 90950.487297,	 350.031188,	 0.278820 
0.765000,	 0.150288,	 1.039864,	 96.578096,	 13.911626,	 304.901009,	 91025.799503,	 350.072552,	 0.278728 
0.795000,	 0.157112,	 1.040482,	 96.527506,	 14.110898,	 304.973423,	 91101.593816,	 350.114120,	 0.278633 
0.825000,	 0.163938,	 1.041107,	 96.476332,	 14.311627,	 305.046405,	 91178.081096,	 350.156010,	 0.278539 
0.855000,	 0.170763,	 1.041737,	 96.424697,	 14.513824,	 305.119981,	 91255.286826,	 350.198236,	 0.278445 
0.885000,	 0.177587,	 1.042373,	 96.372637,	 14.717428,	 305.194133,	 91333.194839,	 350.240786,	 0.278351 
0.915000,	 0.184412,	 1.043015,	 96.320175,	 14.922358,	 305.268834,	 91411.779419,	 350.283647,	 0.278258 
0.945000,	 0.191238,	 1.043662,	 96.267329,	 15.128529,	 305.344056,	 91491.011321,	 350.326802,	 0.278165 
0.975000,	 0.198063,	 1.044314,	 96.214122,	 15.335846,	 305.419767,	 91570.858669,	 350.370231,	 0.278073 
1.005000,	 0.204888,	 1.044970,	 96.160578,	 15.544209,	 305.495934,	 91651.286995,	 350.413917,	 0.277982 
1.035000,	 0.211712,	 1.045631,	 96.106721,	 15.753513,	 305.572519,	 91732.259155,	 350.457837,	 0.277892 
1.065000,	 0.218537,	 1.046296,	 96.052577,	 15.963645,	 305.649486,	 91813.735238,	 350.501971,	 0.277802 
1.095000,	 0.225362,	 1.046965,	 95.998175,	 16.174485,	 305.726793,	 91895.672470,	 350.546293,	 0.277713 
1.125000,	 0.232187,	 1.047638,	 95.943545,	 16.385908,	 305.804396,	 91978.025118,	 350.590781,	 0.277625 
1.155000,	 0.239013,	 1.048313,	 95.888719,	 16.597781,	 305.882250,	 92060.744406,	 350.635406,	 0.277538 
1.185000,	 0.245837,	 1.048991,	 95.833730,	 16.809964,	 305.960307,	 92143.778426,	 350.680142,	 0.277452 
1.215000,	 0.252663,	 1.049671,	 95.778614,	 17.022309,	 306.038515,	 92227.072038,	 350.724958,	 0.277367 
1.245000,	 0.259487,	 1.050352,	 95.723410,	 17.234661,	 306.116819,	 92310.566621,	 350.769824,	 0.277283 
1.275000,	 0.266312,	 1.051035,	 95.668162,	 17.446857,	 306.195161,	 92394.198719,	 350.814706,	 0.277201 
1.305000,	 0.273137,	 1.051718,	 95.612943,	 17.658717,	 306.273470,	 92477.892179,	 350.859563,	 0.277119 
1.335000,	 0.279963,	 1.052401,	 95.557961,	 17.870014,	 306.351614,	 92561.519573,	 350.904320,	 0.277040 
1.365000,	 0.286788,	 1.053080,	 95.503992,	 18.080340,	 306.429238,	 92644.751485,	 350.948774,	 0.276965 
1.395000,	 0.293612,	 1.053749,	 95.453678,	 18.288778,	 306.505272,	 92726.614913,	 350.992312,	 0.276900 
1.425000,	 0.300438,	 1.054389,	 95.414268,	 18.493514,	 306.577022,	 92804.647903,	 351.033391,	 0.276868 
1.455000,	 0.307262,	 1.054966,	 95.400501,	 18.692970,	 306.639709,	 92874.410287,	 351.069278,	 0.276910 
1.485000,	 0.314087,	 1.055458,	 95.432596,	 18.893566,	 306.689932,	 92932.983953,	 351.098027,	 0.277088 
0.015000,	 0.110000,	 1.000000,	 100.000000,	 0.000000,	 300.000000,	 86129.212707,	 347.247603,	 0.287979 
0.045000,	 0.110000,	 1.000000,	 100.000000,	 0.000000,	 300.000000,	 86129.212707,	 347.247603,	 0.287979 
0.075000,	 0.110000,	 1.000000,	 100.000000,	 0.000000,	 300.000000,	 86129.212707,	 347.247603,	 0.287979 
0.105000,	 0.110000,	 1.000000,	 100.000000,	 0.000000,	 300.000000,	 86129.212707,	 347.247603,	 0.287979 
0.135000,	 0.110000,	 1.000000,	 100.000000,	 0.000000,	 300.000000,	 86129.212707,	 347.247603,	 0.287979 
0.165000,	 0.110000,	 1.000000,	 100.000000,	 0.000000,	 300.000000,	 86129.212708,	 347.247603,	 0.287979 
0.195000,	 0.110000,	 1.000000,	 100.000000,	 0.000000,	 300.000000,	 86129.212723,	 347.247603,	 0.287979 
0.225000,	 0.110000,	 1.000000,	 100.000000,	 0.000000,	 300.000000,	 86129.212899,	 347.247603,	 0.287979 
0.255000,	 0.110000,	 1.000000,	 99.999995,	 0.000003,	 300.000002,	 86129.214702,	 347.247604,	 0.287979 
0.285000,	 0.110000,	 1.000000,	 99.999960,	 0.000028,	 300.000021,	 86129.230665,	 347.247615,	 0.287979 
0.315000,	 0.110000,	 1.000001,	 99.999694,	 0.000229,	 300.000163,	 86129.352026,	 347.247697,	 0.287978 
0.345000,	 0.110000,	 1.000007,	 99.998016,	 0.001592,	 300.001076,	 86130.139774,	 347.248226,	 0.287973 
0.375000,	 0.110000,	 1.000041,	 99.989075,	 0.009465,	 300.006032,	 86134.470618,	 347.251094,	 0.287945 
0.405000,	 0.110000,	 1.000198,	 99.949454,	 0.047839,	 300.028534,	 86154.426979,	 347.264116,	 0.287820 
0.435000,	 0.110000,	 1.000799,	 99.805946,	 0.203795,	 300.112700,	 86230.445383,	 347.312822,	 0.287367 
0.465000,	 0.110000,	 1.002666,	 99.390146,	 0.721387,	 300.366167,	 86464.251591,	 347.459456,	 0.286056 
0.495000,	 0.111113,	 1.007948,	 98.574275,	 2.520419,	 300.999732,	 87103.079368,	 347.825713,	 0.283494 
0.525000,	 0.115562,	 1.015406,	 97.741292,	 5.361958,	 301.859021,	 87998.082901,	 348.321842,	 0.281028 
0.555000,	 0.122237,	 1.018780,	 97.836443,	 6.804136,	 302.331214,	 88428.573313,	 348.594173,	 0.281338 
0.585000,	 0.128912,	 1.020631,	 97.975033,	 7.481059,	 302.578821,	 88661.778731,	 348.736892,	 0.281760 
0.615000,	 0.135587,	 1.021709,	 98.033207,	 7.839193,	 302.715904,	 88795.659595,	 348.815880,	 0.281943 
0.645000,	 0.142263,	 1.022438,	 98.031055,	 8.078094,	 302.805827,	 88885.360016,	 348.867685,	 0.281950 
0.675000,	 0.148938,	 1.023035,	 98.000225,	 8.277905,	 302.878697,	 88958.713401,	 348.909660,	 0.281876 
0.705000,	 0.155612,	 1.023597,	 97.958333,	 8.468280,	 302.946923,	 89027.636590,	 348.948955,	 0.281771 
0.735000,	 0.162287,	 1.024158,	 97.912430,	 8.658917,	 303.014855,	 89096.384756,	 348.988076,	 0.281656 
0.765000,	 0.168963,	 1.024728,	 97.864767,	 8.852560,	 303.083787,	 89166.239538,	 349.027769,	 0.281537 
0.795000,	 0.175638,	 1.025309,	 97.815937,	 9.049889,	 303.154053,	 89237.537263,	 349.068226,	 0.281417 