TITLE = "Final State"
VARIABLES = "X", "Y", "rho", "u", "v", "T", "p", "c", "M"
ZONE I=100, J=100, DATAPACKING=POINT
0.015000,	 0.007425,	 1.000000,	 1000.000000,	 0.000000,	 300.000000,	 86129.212707,	 347.247603,	 2.879789 
0.045000,	 0.007425,	 1.000000,	 1000.000000,	 0.000000,	 300.000000,	 86129.212707,	 347.247603,	 2.879789 
0.075000,	 0.007425,	 1.000000,	 1000.000000,	 0.000000,	 300.000000,	 86129.212707,	 347.247603,	 2.879789 
0.105000,	 0.007425,	 1.000000,	 1000.000000,	 0.000000,	 300.000000,	 86129.212707,	 347.247603,	 2.879789 
0.135000,	 0.007425,	 1.000000,	 1000.000000,	 0.000000,	 300.000000,	 86129.212707,	 347.247603,	 2.879789 
0.165000,	 0.007425,	 1.000000,	 1000.000000,	 0.000000,	 300.000000,	 86129.212707,	 347.247603,	 2.879789 
0.195000,	 0.007425,	 1.000000,	 1000.000000,	 0.000000,	 300.000000,	 86129.212707,	 347.247603,	 2.879789 
0.225000,	 0.007425,	 1.000000,	 1000.000000,	 0.000000,	 300.000000,	 86129.212707,	 347.247603,	 2.879789 
0.255000,	 0.007425,	 1.000000,	 1000.000000,	 0.000000,	 300.000000,	 86129.212707,	 347.247603,	 2.879789 
0.285000,	 0.007425,	 1.000000,	 1000.000000,	 0.000000,	 300.000000,	 86129.212707,	 347.247603,	 2.879789 
0.315000,	 0.007425,	 1.000000,	 1000.000000,	 0.000000,	 300.000000,	 86129.212707,	 347.247603,	 2.879789 
0.345000,	 0.007425,	 1.000000,	 1000.000000,	 0.000000,	 300.000000,	 86129.212707,	 347.247603,	 2.879789 
0.375000,	 0.007425,	 1.000000,	 1000.000000,	 0.000000,	 300.000000,	 86129.212707,	 347.247603,	 2.879789 
0.405000,	 0.007425,	 1.000000,	 1000.000000,	 0.000000,	 300.000000,	 86129.212707,	 347.247603,	 2.879789 
0.435000,	 0.007425,	 1.000000,	 1000.000000,	 0.000000,	 300.000000,	 86129.212707,	 347.247603,	 2.879789 
0.465000,	 0.007425,	 1.000000,	 1000.000000,	 0.000000,	 300.000000,	 86129.212707,	 347.247603,	 2.879789 
0.495000,	 0.007425,	 1.000000,	 1000.000000,	 0.000000,	 300.000000,	 86129.212707,	 347.247603,	 2.879789 
0.525000,	 0.007425,	 1.000000,	 1000.000000,	 0.000000,	 300.000000,	 86129.212707,	 347.247603,	 2.879789 
0.555000,	 0.007425,	 1.000000,	 1000.000000,	 0.000000,	 300.000000,	 86129.212707,	 347.247603,	 2.879789 
0.585000,	 0.007425,	 1.000000,	 1000.000000,	 0.000000,	 300.000000,	 86129.212707,	 347.247603,	 2.879789 
0.615000,	 0.007425,	 1.000000,	 1000.000000,	 0.000000,	 300.000000,	 86129.212707,	 347.247603,	 2.879789 
0.645000,	 0.007425,	 1.000000,	 1000.000000,	 0.000000,	 300.000000,	 86129.212707,	 347.247603,	 2.879789 
0.675000,	 0.007425,	 1.000000,	 1000.000000,	 0.000000,	 300.000000,	 86129.212707,	 347.247603,	 2.879789 
0.705000,	 0.007425,	 1.000000,	 1000.000000,	 0.000000,	 300.000000,	 86129.212707,	 347.247603,	 2.879789 
0.735000,	 0.007425,	 1.000000,	 1000.000000,	 0.000000,	 300.000000,	 86129.212707,	 347.247603,	 2.879789 
0.765000,	 0.007425,	 1.000000,	 1000.000000,	 0.000000,	 300.000000,	 86129.212707,	 347.247603,	 2.879789 
0.795000,	 0.007425,	 1.000000,	 1000.000000,	 0.000000,	 300.000000,	 86129.212707,	 347.247603,	 2.879789 
0.825000,	 0.007425,	 1.000000,	 1000.000000,	 0.000000,	 300.000000,	 86129.212707,	 347.247603,	 2.879789 
0.855000,	 0.007425,	 1.000000,	 1000.000000,	 0.000000,	 300.000000,	 86129.212707,	 347.247603,	 2.879789 
0.885000,	 0.007425,	 1.000000,	 1000.000000,	 0.000000,	 300.000000,	 86129.212707,	 347.247603,	 2.879789 
0.915000,	 0.007425,	 1.000000,	 1000.000000,	 0.000000,	 300.000000,	 86129.212707,	 347.247603,	 2.879789 
0.945000,	 0.007425,	 1.000000,	 1000.000000,	 0.000000,	 300.000000,	 86129.212707,	 347.247603,	 2.879789 
0.975000,	 0.007425,	 1.000000,	 1000.000000,	 0.000000,	 300.000000,	 86129.212707,	 347.247603,	 2.879789 
1.005000,	 0.009913,	 1.421052,	 764.856819,	 93.418943,	 500.455161,	 204175.838109,	 448.498728,	 1.718044 
1.035000,	 0.016133,	 1.648479,	 678.980555,	 155.861343,	 554.683131,	 262517.086513,	 472.172955,	 1.475392 
1.065000,	 0.023595,	 1.567594,	 706.008951,	 176.381127,	 535.839378,	 241155.630362,	 464.083302,	 1.568055 
1.095000,	 0.031058,	 1.522164,	 719.199119,	 181.822059,	 526.690060,	 230168.515335,	 460.104192,	 1.612301 
1.125000,	 0.038521,	 1.500050,	 720.970883,	 182.816232,	 524.932783,	 226067.710337,	 459.335993,	 1.619268 
1.155000,	 0.045984,	 1.489631,	 717.875366,	 182.182509,	 524.996064,	 224524.562438,	 459.363679,	 1.612300 
1.185000,	 0.053447,	 1.493247,	 709.936643,	 180.465350,	 526.393501,	 225668.682512,	 459.974640,	 1.592511 
1.215000,	 0.060909,	 1.506452,	 697.864008,	 177.908703,	 528.837914,	 228721.610463,	 461.041395,	 1.562082 
1.245000,	 0.068373,	 1.502169,	 690.890280,	 177.202949,	 529.285791,	 228264.377558,	 461.236584,	 1.546394 
1.275000,	 0.075836,	 1.504049,	 680.768354,	 174.604852,	 528.158691,	 228063.431554,	 460.745226,	 1.525362 
1.305000,	 0.083298,	 1.506366,	 670.345072,	 172.562768,	 527.581408,	 228165.109028,	 460.493358,	 1.503170 
1.335000,	 0.090761,	 1.511457,	 661.967365,	 170.023359,	 527.186032,	 228764.625396,	 460.320776,	 1.484733 
1.365000,	 0.098224,	 1.518794,	 654.901824,	 167.505089,	 526.880100,	 229741.780283,	 460.187192,	 1.468933 
1.395000,	 0.105687,	 1.526708,	 649.568183,	 164.964913,	 525.339396,	 230263.489917,	 459.513859,	 1.458472 
1.425000,	 0.113150,	 1.527521,	 646.192386,	 164.000215,	 523.526366,	 229591.089567,	 458.720246,	 1.453345 
1.455000,	 0.120612,	 1.540566,	 642.371630,	 162.257262,	 522.844089,	 231249.958390,	 458.421239,	 1.445280 
1.485000,	 0.128075,	 1.552314,	 639.492666,	 161.513690,	 522.903226,	 233039.740266,	 458.447163,	 1.438713 
1.515000,	 0.135539,	 1.566114,	 638.160376,	 160.413803,	 524.247687,	 235715.994347,	 459.036152,	 1.433467 
1.545000,	 0.143001,	 1.566925,	 640.175880,	 160.263116,	 524.236721,	 235833.112714,	 459.031351,	 1.437661 
1.575000,	 0.150464,	 1.569236,	 640.565422,	 160.492023,	 524.430253,	 236268.174786,	 459.116074,	 1.438340 
1.605000,	 0.157927,	 1.565350,	 641.562699,	 161.058278,	 523.955814,	 235469.905462,	 458.908351,	 1.441399 
1.635000,	 0.165390,	 1.559681,	 643.438408,	 161.423165,	 523.090747,	 234229.790377,	 458.529359,	 1.446752 
1.665000,	 0.172853,	 1.558309,	 644.002658,	 161.595550,	 521.823014,	 233456.475168,	 457.973389,	 1.449794 
1.695000,	 0.180316,	 1.559928,	 644.386520,	 161.710377,	 521.852752,	 233712.432186,	 457.986439,	 1.450627 
1.725000,	 0.187779,	 1.560290,	 645.602708,	 161.901712,	 521.519596,	 233617.441132,	 457.840224,	 1.453769 
1.755000,	 0.195241,	 1.563454,	 646.013017,	 161.890754,	 521.376044,	 234026.763275,	 457.777207,	 1.454832 
1.785000,	 0.202704,	 1.567536,	 645.033719,	 161.844963,	 520.829840,	 234391.928391,	 457.537356,	 1.453495 
1.815000,	 0.210167,	 1.565113,	 646.359039,	 161.954407,	 520.000924,	 233657.133507,	 457.173119,	 1.457523 
1.845000,	 0.217630,	 1.568885,	 645.506776,	 161.839247,	 520.024477,	 234230.854619,	 457.183473,	 1.455620 
1.875000,	 0.225093,	 1.570636,	 645.134297,	 161.793270,	 520.089330,	 234521.454949,	 457.211980,	 1.454715 
1.905000,	 0.232556,	 1.566614,	 646.507104,	 162.096382,	 519.531178,	 233669.997115,	 456.966577,	 1.458571 
1.935000,	 0.240019,	 1.563904,	 648.132622,	 162.329264,	 519.311033,	 233166.824663,	 456.869750,	 1.462456 
1.965000,	 0.247481,	 1.560926,	 649.451664,	 162.806451,	 518.736613,	 232465.455853,	 456.617004,	 1.466321 
1.995000,	 0.253700,	 1.367535,	 691.971979,	 134.528211,	 497.284101,	 195241.547916,	 447.075547,	 1.576753 
2.025000,	 0.256188,	 1.027595,	 754.802148,	 63.353177,	 461.765677,	 136230.059893,	 430.813649,	 1.758199 
2.055000,	 0.256188,	 0.917785,	 779.717813,	 27.380287,	 443.661777,	 116902.077148,	 422.284009,	 1.847568 
2.085000,	 0.256188,	 0.893149,	 788.489804,	 10.739621,	 431.767783,	 110714.165817,	 416.585113,	 1.892922 
2.115000,	 0.256188,	 0.891521,	 798.048598,	 3.340851,	 417.976309,	 106982.404619,	 409.877862,	 1.947057 
2.145000,	 0.256188,	 0.913495,	 796.072382,	 1.057572,	 408.137369,	 107038.906749,	 405.024980,	 1.965491 
2.175000,	 0.256188,	 0.928627,	 798.440380,	 -0.153961,	 398.101150,	 106136.337543,	 400.014142,	 1.996030 
2.205000,	 0.256188,	 0.937375,	 800.561322,	 0.295585,	 393.141643,	 105801.418393,	 397.514663,	 2.013917 
2.235000,	 0.256188,	 0.936312,	 808.476606,	 -0.130024,	 388.399814,	 104406.822599,	 395.110104,	 2.046206 
2.265000,	 0.256188,	 0.928684,	 820.773820,	 0.021585,	 383.415451,	 102227.331174,	 392.566679,	 2.090788 
2.295000,	 0.256188,	 0.923047,	 833.029734,	 -0.959233,	 381.959371,	 101220.886552,	 391.820554,	 2.126051 
2.325000,	 0.256188,	 0.916704,	 845.158204,	 -0.936941,	 378.703467,	 99668.428022,	 390.146998,	 2.166257 
2.355000,	 0.256188,	 0.910122,	 858.944780,	 -0.694876,	 374.025988,	 97730.589137,	 387.730101,	 2.215317 
2.385000,	 0.256188,	 0.908483,	 870.466595,	 -0.704936,	 371.237559,	 96827.329433,	 386.282100,	 2.253449 
2.415000,	 0.256188,	 0.907538,	 882.404818,	 -0.378273,	 366.255759,	 95428.639248,	 383.681501,	 2.299837 
2.445000,	 0.256188,	 0.906964,	 894.600320,	 -1.057516,	 363.445137,	 94636.378151,	 382.206493,	 2.340622 
2.475000,	 0.256188,	 0.910608,	 906.173931,	 -1.485190,	 358.995406,	 93853.261578,	 379.859572,	 2.385553 
2.505000,	 0.256188,	 0.917413,	 915.302868,	 -0.708927,	 353.700386,	 93159.992487,	 377.047787,	 2.427552 
2.535000,	 0.256188,	 0.922516,	 923.493086,	 -0.414229,	 349.371595,	 92531.716817,	 374.733419,	 2.464400 
2.565000,	 0.256188,	 0.917291,	 938.196935,	 -0.237925,	 340.299368,	 89618.511832,	 369.836014,	 2.536792 
2.595000,	 0.256188,	 0.926448,	 944.148257,	 -0.720709,	 338.683273,	 90083.292623,	 368.956786,	 2.558968 
2.625000,	 0.256188,	 0.932005,	 952.487771,	 -0.656404,	 333.276562,	 89176.881080,	 365.999941,	 2.602427 
2.655000,	 0.256188,	 0.939362,	 962.214441,	 -1.194675,	 325.350223,	 87743.163800,	 361.621450,	 2.660835 
2.685000,	 0.256188,	 0.951422,	 963.664331,	 -0.936393,	 324.258191,	 88571.367335,	 361.014052,	 2.669328 
2.715000,	 0.256188,	 0.957970,	 967.206407,	 -0.828108,	 321.873121,	 88524.971568,	 359.683889,	 2.689047 
2.745000,	 0.256188,	 0.961268,	 970.237448,	 -0.825549,	 321.222046,	 88650.081853,	 359.319926,	 2.700206 
2.775000,	 0.256188,	 0.965614,	 974.118143,	 -0.257885,	 317.572016,	 88039.001226,	 357.272626,	 2.726540 
2.805000,	 0.256188,	 0.969025,	 977.786209,	 -0.376811,	 315.745372,	 87841.776563,	 356.243645,	 2.744712 
2.835000,	 0.256188,	 0.972064,	 981.300244,	 -0.431265,	 313.747856,	 87559.830243,	 355.114996,	 2.763331 
2.865000,	 0.256188,	 0.978500,	 981.908300,	 -0.187024,	 312.907710,	 87903.513498,	 354.639219,	 2.768753 
2.895000,	 0.256188,	 0.980919,	 984.518164,	 -0.302006,	 311.468908,	 87715.641366,	 353.822934,	 2.782517 
2.925000,	 0.256188,	 0.983713,	 986.641083,	 -0.341300,	 310.101704,	 87579.366104,	 353.045521,	 2.794657 
2.955000,	 0.256188,	 0.987735,	 987.364273,	 -0.218136,	 309.392139,	 87736.267875,	 352.641375,	 2.799911 
2.985000,	 0.256188,	 0.987082,	 990.144957,	 -0.119028,	 307.461115,	 87130.987850,	 351.539174,	 2.816599 
0.015000,	 0.022277,	 1.000000,	 1000.000000,	 0.000000,	 300.000000,	 86129.212707,	 347.247603,	 2.879789 
0.045000,	 0.022277,	 1.000000,	 1000.000000,	 0.000000,	 300.000000,	 86129.212707,	 347.247603,	 2.879789 
0.075000,	 0.022277,	 1.000000,	 1000.000000,	 0.000000,	 300.000000,	 86129.212707,	 347.247603,	 2.879789 
0.105000,	 0.022277,	 1.000000,	 1000.000000,	 0.000000,	 300.000000,	 86129.212707,	 347.247603,	 2.879789 
0.135000,	 0.022277,	 1.000000,	 1000.000000,	 0.000000,	 300.000000,	 86129.212707,	 347.247603,	 2.879789 
0.165000,	 0.022277,	 1.000000,	 1000.000000,	 0.000000,	 300.000000,	 86129.212707,	 347.247603,	 2.879789 
0.195000,	 0.022277,	 1.000000,	 1000.000000,	 0.000000,	 300.000000,	 86129.212707,	 347.247603,	 2.879789 
0.225000,	 0.022277,	 1.000000,	 1000.000000,	 0.000000,	 300.000000,	 86129.212707,	 347.247603,	 2.879789 
0.255000,	 0.022277,	 1.000000,	 1000.000000,	 0.000000,	 300.000000,	 86129.212707,	 347.247603,	 2.879789 
0.285000,	 0.022277,	 1.000000,	 1000.000000,	 0.000000,	 300.000000,	 86129.212707,	 347.247603,	 2.879789 
0.315000,	 0.022277,	 1.000000,	 1000.000000,	 0.000000,	 300.000000,	 86129.212707,	 347.247603,	 2.879789 
0.345000,	 0.022277,	 1.000000,	 1000.000000,	 0.000000,	 300.000000,	 86129.212707,	 347.247603,	 2.879789 
0.375000,	 0.022277,	 1.000000,	 1000.000000,	 0.000000,	 300.000000,	 86129.212707,	 347.247603,	 2.879789 
0.405000,	 0.022277,	 1.000000,	 1000.000000,	 0.000000,	 300.000000,	 86129.212707,	 347.247603,	 2.879789 
0.435000,	 0.022277,	 1.000000,	 1000.000000,	 0.000000,	 300.000000,	 86129.212707,	 347.247603,	 2.879789 
0.465000,	 0.022277,	 1.000000,	 1000.000000,	 0.000000,	 300.000000,	 86129.212707,	 347.247603,	 2.879789 
0.495000,	 0.022277,	 1.000000,	 1000.000000,	 0.000000,	 300.000000,	 86129.212707,	 347.247603,	 2.879789 
0.525000,	 0.022277,	 1.000000,	 1000.000000,	 0.000000,	 300.000000,	 86129.212707,	 347.247603,	 2.879789 
0.555000,	 0.022277,	 1.000000,	 1000.000000,	 0.000000,	 300.000000,	 86129.212707,	 347.247603,	 2.879789 
0.585000,	 0.022277,	 1.000000,	 1000.000000,	 0.000000,	 300.000000,	 86129.212707,	 347.247603,	 2.879789 
0.615000,	 0.022277,	 1.000000,	 1000.000000,	 0.000000,	 300.000000,	 86129.212707,	 347.247603,	 2.879789 
0.645000,	 0.022277,	 1.000000,	 1000.000000,	 0.000000,	 300.000000,	 86129.212707,	 347.247603,	 2.879789 
0.675000,	 0.022277,	 1.000000,	 1000.000000,	 0.000000,	 300.000000,	 86129.212707,	 347.247603,	 2.879789 
0.705000,	 0.022277,	 1.000000,	 1000.000000,	 0.000000,	 300.000000,	 86129.212707,	 347.247603,	 2.879789 
0.735000,	 0.022277,	 1.000000,	 1000.000000,	 0.000000,	 300.000000,	 86129.212707,	 347.247603,	 2.879789 
0.765000,	 0.022277,	 1.000000,	 1000.000000,	 0.000000,	 300.000000,	 86129.212707,	 347.247603,	 2.879789 
0.795000,	 0.022277,	 1.000000,	 1000.000000,	 0.000000,	 300.000000,	 86129.212707,	 347.247603,	 2.879789 
0.825000,	 0.022277,	 1.000000,	 1000.000000,	 0.000000,	 300.000000,	 86129.212707,	 347.247603,	 2.879789 
0.855000,	 0.022277,	 1.000000,	 1000.000000,	 0.000000,	 300.000000,	 86129.212707,	 347.247603,	 2.879789 
0.885000,	 0.022277,	 1.000000,	 1000.000000,	 0.000000,	 300.000000,	 86129.212707,	 347.247603,	 2.879789 
0.915000,	 0.022277,	 1.000000,	 1000.000000,	 0.000000,	 300.000000,	 86129.212707,	 347.247603,	 2.879789 
0.945000,	 0.022277,	 1.000000,	 1000.000000,	 -0.000000,	 300.000000,	 86129.212707,	 347.247603,	 2.879789 
0.975000,	 0.022277,	 1.000000,	 1000.000000,	 0.000000,	 300.000000,	 86129.212707,	 347.247603,	 2.879789 
1.005000,	 0.024740,	 1.211519,	 919.168849,	 85.155482,	 373.734087,	 129993.706483,	 387.578774,	 2.381722 
1.035000,	 0.030897,	 1.515255,	 834.057289,	 164.588049,	 439.193000,	 191060.313180,	 420.151902,	 2.023415 
1.065000,	 0.038286,	 1.643820,	 812.978563,	 192.919516,	 454.036231,	 214276.284441,	 427.192760,	 1.955920 
1.095000,	 0.045674,	 1.680807,	 808.593667,	 202.587772,	 459.121218,	 221551.369558,	 429.578276,	 1.940475 
1.125000,	 0.053063,	 1.672896,	 809.353963,	 206.277323,	 463.711925,	 222713.432494,	 431.720590,	 1.934647 
1.155000,	 0.060452,	 1.647323,	 809.797222,	 207.690222,	 470.761511,	 222642.981689,	 434.989830,	 1.921899 
1.185000,	 0.067840,	 1.616176,	 804.303816,	 208.145719,	 483.168623,	 224190.193762,	 440.684719,	 1.885249 
1.215000,	 0.075229,	 1.587941,	 792.541673,	 207.518479,	 500.024257,	 227957.864581,	 448.305602,	 1.827458 
1.245000,	 0.082618,	 1.516854,	 795.462348,	 208.378838,	 512.904740,	 223362.246716,	 454.043001,	 1.811068 
1.275000,	 0.090006,	 1.485222,	 780.547157,	 208.206852,	 530.286957,	 226116.106231,	 461.672602,	 1.749809 
1.305000,	 0.097395,	 1.432326,	 779.729732,	 206.774261,	 543.620323,	 223545.899117,	 467.440644,	 1.725740 
1.335000,	 0.104783,	 1.399238,	 772.635359,	 203.857544,	 558.694364,	 224437.282571,	 473.877157,	 1.686252 
1.365000,	 0.112172,	 1.379295,	 774.421438,	 200.760862,	 567.937421,	 224898.691904,	 477.780996,	 1.674451 
1.395000,	 0.119561,	 1.384591,	 760.741712,	 198.097109,	 578.418089,	 229928.332545,	 482.169308,	 1.630363 
1.425000,	 0.126949,	 1.366103,	 759.090958,	 196.137900,	 582.498959,	 228458.740069,	 483.867225,	 1.620323 
1.455000,	 0.134338,	 1.375587,	 751.225852,	 193.537764,	 587.481631,	 232012.554831,	 485.932308,	 1.596428 
1.485000,	 0.141727,	 1.372988,	 750.977819,	 192.342441,	 589.573155,	 232398.602798,	 486.796536,	 1.592489 
1.515000,	 0.149115,	 1.387695,	 743.808410,	 189.133794,	 593.619352,	 236500.091319,	 488.464104,	 1.571207 
1.545000,	 0.156504,	 1.391067,	 738.100541,	 186.720197,	 595.290432,	 237742.134987,	 489.151151,	 1.556476 
1.575000,	 0.163892,	 1.389273,	 736.104453,	 186.261755,	 595.612254,	 237563.816060,	 489.283355,	 1.551871 
1.605000,	 0.171281,	 1.379282,	 739.651977,	 186.645690,	 594.454502,	 235396.999712,	 488.807588,	 1.560610 
1.635000,	 0.178670,	 1.376273,	 742.180030,	 187.014856,	 593.360376,	 234451.152780,	 488.357543,	 1.567252 
1.665000,	 0.186058,	 1.373725,	 744.897075,	 187.525175,	 592.185694,	 233553.801861,	 487.873900,	 1.574462 
1.695000,	 0.193447,	 1.374540,	 746.548062,	 187.817588,	 591.771630,	 233528.939567,	 487.703306,	 1.578442 
1.725000,	 0.200836,	 1.375900,	 747.778070,	 188.118912,	 591.207656,	 233537.240276,	 487.470853,	 1.581792 
1.755000,	 0.208224,	 1.381742,	 746.902540,	 187.814175,	 591.003348,	 234447.783010,	 487.386617,	 1.580171 
1.785000,	 0.215613,	 1.383585,	 748.270504,	 188.185722,	 590.159692,	 234425.329837,	 487.038621,	 1.584210 
1.815000,	 0.223001,	 1.383198,	 749.575246,	 188.169356,	 589.123839,	 233948.488069,	 486.611006,	 1.588195 
1.845000,	 0.230390,	 1.388146,	 748.244236,	 188.328236,	 589.029130,	 234747.598459,	 486.571890,	 1.585749 
1.875000,	 0.237779,	 1.389432,	 747.799121,	 188.314976,	 589.084882,	 234987.255910,	 486.594917,	 1.584780 
1.905000,	 0.245167,	 1.383479,	 751.513994,	 188.680821,	 588.003575,	 233551.031427,	 486.148122,	 1.593831 
1.935000,	 0.252556,	 1.383537,	 752.578110,	 188.921284,	 587.740716,	 233456.363070,	 486.039447,	 1.596431 
1.965000,	 0.259944,	 1.378528,	 757.420821,	 189.874356,	 586.165789,	 231987.797705,	 485.387807,	 1.608729 
1.995000,	 0.266101,	 1.282889,	 782.288080,	 165.243313,	 561.642152,	 206860.686454,	 475.125650,	 1.682818 
2.025000,	 0.268564,	 1.087783,	 814.924297,	 105.374094,	 520.388297,	 162517.085613,	 457.343372,	 1.796700 
2.055000,	 0.268564,	 0.963936,	 838.380332,	 60.606198,	 492.219879,	 136218.591315,	 444.793266,	 1.889795 
2.085000,	 0.268564,	 0.896815,	 856.113943,	 32.539632,	 472.163380,	 121569.494185,	 435.637021,	 1.966619 
2.115000,	 0.268564,	 0.862836,	 870.630708,	 16.113015,	 456.159531,	 112998.869204,	 428.190479,	 2.033627 
2.145000,	 0.268564,	 0.854330,	 880.771825,	 8.227569,	 444.111463,	 108929.821298,	 422.497964,	 2.084768 
2.175000,	 0.268564,	 0.861355,	 885.673548,	 4.410395,	 434.252008,	 107387.348536,	 417.781829,	 2.119969 
2.205000,	 0.268564,	 0.869738,	 894.419173,	 2.977741,	 422.038613,	 105382.878068,	 411.864844,	 2.171645 
2.235000,	 0.268564,	 0.885075,	 901.582386,	 0.607876,	 411.190027,	 104484.456987,	 406.536848,	 2.217714 
2.265000,	 0.268564,	 0.890754,	 918.971895,	 -1.855012,	 394.804279,	 100964.547143,	 398.354341,	 2.306925 
2.295000,	 0.268564,	 0.910948,	 921.760817,	 -3.195546,	 387.106598,	 101240.320109,	 394.451776,	 2.336829 
2.325000,	 0.268564,	 0.917637,	 930.401233,	 -3.263393,	 377.033758,	 99329.944086,	 389.285966,	 2.390035 
2.355000,	 0.268564,	 0.921646,	 946.347514,	 -5.343373,	 363.257172,	 96118.633843,	 382.107646,	 2.476691 
2.385000,	 0.268564,	 0.933760,	 952.633542,	 -4.589019,	 355.380581,	 95270.397566,	 377.942278,	 2.520609 
2.415000,	 0.268564,	 0.941300,	 965.115680,	 -5.111998,	 344.057671,	 92979.787477,	 371.872661,	 2.595322 
2.445000,	 0.268564,	 0.957941,	 967.480610,	 -5.484728,	 339.595695,	 93396.443316,	 369.453442,	 2.618723 
2.475000,	 0.268564,	 0.970593,	 968.250105,	 -5.189729,	 336.039124,	 93638.847613,	 367.513715,	 2.634634 
2.505000,	 0.268564,	 0.971441,	 977.045493,	 -4.180380,	 327.940732,	 91462.033183,	 363.058250,	 2.691178 
2.535000,	 0.268564,	 0.979130,	 978.947067,	 -2.565723,	 324.452705,	 91205.532515,	 361.122318,	 2.710856 
2.565000,	 0.268564,	 0.972617,	 987.285425,	 -1.460373,	 316.792322,	 88459.757120,	 356.833774,	 2.766797 
2.595000,	 0.268564,	 0.984812,	 987.095964,	 -2.787980,	 315.759360,	 89276.829521,	 356.251536,	 2.770795 
2.625000,	 0.268564,	 0.987529,	 988.710531,	 -1.588052,	 313.376121,	 88847.438728,	 354.904560,	 2.785853 
2.655000,	 0.268564,	 0.990539,	 989.592586,	 -2.236063,	 311.816277,	 88674.690939,	 354.020181,	 2.795307 
2.685000,	 0.268564,	 0.996781,	 989.050874,	 -2.263938,	 311.443863,	 89126.874342,	 353.808709,	 2.795447 
2.715000,	 0.268564,	 1.000166,	 989.807447,	 -2.052293,	 310.316249,	 89105.741113,	 353.167627,	 2.802662 
2.745000,	 0.268564,	 1.001564,	 988.764619,	 -1.819167,	 310.388719,	 89251.113147,	 353.208864,	 2.799381 
2.775000,	 0.268564,	 0.995899,	 994.719819,	 -0.912059,	 305.769379,	 87425.552961,	 350.570707,	 2.837431 
2.805000,	 0.268564,	 0.999207,	 995.232894,	 -0.801922,	 305.099617,	 87523.866427,	 350.186549,	 2.842009 
2.835000,	 0.268564,	 1.000479,	 995.988214,	 -0.682272,	 304.383535,	 87429.569254,	 349.775356,	 2.847509 
2.865000,	 0.268564,	 1.002064,	 996.369439,	 -0.326088,	 303.946929,	 87442.470122,	 349.524408,	 2.850644 
2.895000,	 0.268564,	 1.004169,	 996.569593,	 -0.681359,	 303.699318,	 87554.807036,	 349.382009,	 2.852379 
2.925000,	 0.268564,	 1.004939,	 996.812597,	 -0.731394,	 303.397871,	 87534.918818,	 349.208570,	 2.854491 
2.955000,	 0.268564,	 1.005469,	 997.258197,	 -0.541572,	 303.023502,	 87473.051581,	 348.993056,	 2.857531 
2.985000,	 0.268564,	 1.003030,	 999.473463,	 -0.329607,	 301.436497,	 86803.857274,	 348.077977,	 2.871407 
0.015000,	 0.037129,	 1.000000,	 1000.000000,	 0.000000,	 300.000000,	 86129.212707,	 347.247603,	 2.879789 
0.045000,	 0.037129,	 1.000000,	 1000.000000,	 0.000000,	 300.000000,	 86129.212707,	 347.247603,	 2.879789 
0.075000,	 0.037129,	 1.000000,	 1000.000000,	 0.000000,	 300.000000,	 86129.212707,	 347.247603,	 2.879789 
0.105000,	 0.037129,	 1.000000,	 1000.000000,	 0.000000,	 300.000000,	 86129.212707,	 347.247603,	 2.879789 
0.135000,	 0.037129,	 1.000000,	 1000.000000,	 0.000000,	 300.000000,	 86129.212707,	 347.247603,	 2.879789 
0.165000,	 0.037129,	 1.000000,	 1000.000000,	 0.000000,	 300.000000,	 86129.212707,	 347.247603,	 2.879789 
0.195000,	 0.037129,	 1.000000,	 1000.000000,	 0.000000,	 300.000000,	 86129.212707,	 347.247603,	 2.879789 
0.225000,	 0.037129,	 1.000000,	 1000.000000,	 0.000000,	 300.000000,	 86129.212707,	 347.247603,	 2.879789 
0.255000,	 0.037129,	 1.000000,	 1000.000000,	 0.000000,	 300.000000,	 86129.212707,	 347.247603,	 2.879789 
0.285000,	 0.037129,	 1.000000,	 1000.000000,	 0.000000,	 300.000000,	 86129.212707,	 347.247603,	 2.879789 
0.315000,	 0.037129,	 1.000000,	 1000.000000,	 0.000000,	 300.000000,	 86129.212707,	 347.247603,	 2.879789 
0.345000,	 0.037129,	 1.000000,	 1000.000000,	 0.000000,	 300.000000,	 86129.212707,	 347.247603,	 2.879789 
0.375000,	 0.037129,	 1.000000,	 1000.000000,	 0.000000,	 300.000000,	 86129.212707,	 347.247603,	 2.879789 
0.405000,	 0.037129,	 1.000000,	 1000.000000,	 0.000000,	 300.000000,	 86129.212707,	 347.247603,	 2.879789 
0.435000,	 0.037129,	 1.000000,	 1000.000000,	 0.000000,	 300.000000,	 86129.212707,	 347.247603,	 2.879789 
0.465000,	 0.037129,	 1.000000,	 1000.000000,	 0.000000,	 300.000000,	 86129.212707,	 347.247603,	 2.879789 
0.495000,	 0.037129,	 1.000000,	 1000.000000,	 0.000000,	 300.000000,	 86129.212707,	 347.247603,	 2.879789 
0.525000,	 0.037129,	 1.000000,	 1000.000000,	 0.000000,	 300.000000,	 86129.212707,	 347.247603,	 2.879789 
0.555000,	 0.037129,	 1.000000,	 1000.000000,	 0.000000,	 300.000000,	 86129.212707,	 347.247603,	 2.879789 
0.585000,	 0.037129,	 1.000000,	 1000.000000,	 0.000000,	 300.000000,	 86129.212707,	 347.247603,	 2.879789 
0.615000,	 0.037129,	 1.000000,	 1000.000000,	 0.000000,	 300.000000,	 86129.212707,	 347.247603,	 2.879789 
0.645000,	 0.037129,	 1.000000,	 1000.000000,	 0.000000,	 300.000000,	 86129.212707,	 347.247603,	 2.879789 
0.675000,	 0.037129,	 1.000000,	 1000.000000,	 0.000000,	 300.000000,	 86129.212707,	 347.247603,	 2.879789 
0.705000,	 0.037129,	 1.000000,	 1000.000000,	 0.000000,	 300.000000,	 86129.212707,	 347.247603,	 2.879789 
0.735000,	 0.037129,	 1.000000,	 1000.000000,	 0.000000,	 300.000000,	 86129.212707,	 347.247603,	 2.879789 
0.765000,	 0.037129,	 1.000000,	 1000.000000,	 0.000000,	 300.000000,	 86129.212707,	 347.247603,	 2.879789 
0.795000,	 0.037129,	 1.000000,	 1000.000000,	 0.000000,	 300.000000,	 86129.212707,	 347.247603,	 2.879789 
0.825000,	 0.037129,	 1.000000,	 1000.000000,	 0.000000,	 300.000000,	 86129.212707,	 347.247603,	 2.879789 
0.855000,	 0.037129,	 1.000000,	 1000.000000,	 0.000000,	 300.000000,	 86129.212707,	 347.247603,	 2.879789 
0.885000,	 0.037129,	 1.000000,	 1000.000000,	 0.000000,	 300.000000,	 86129.212707,	 347.247603,	 2.879789 
0.915000,	 0.037129,	 1.000000,	 1000.000000,	 0.000000,	 300.000000,	 86129.212707,	 347.247603,	 2.879789 
0.945000,	 0.037129,	 1.000000,	 1000.000000,	 0.000000,	 300.000000,	 86129.212707,	 347.247603,	 2.879789 
0.975000,	 0.037129,	 1.000000,	 1000.000000,	 0.000000,	 300.000000,	 86129.212707,	 347.247603,	 2.879789 
1.005000,	 0.039567,	 1.110586,	 975.416683,	 42.588916,	 323.480071,	 103140.441302,	 360.580631,	 2.707705 
1.035000,	 0.045662,	 1.349877,	 921.009590,	 116.871763,	 370.150269,	 143450.306367,	 385.716009,	 2.406940 
1.065000,	 0.052976,	 1.563151,	 882.941718,	 166.863472,	 400.020344,	 179519.790682,	 400.977190,	 2.240952 
1.095000,	 0.060291,	 1.693268,	 863.302684,	 193.415740,	 416.074269,	 202267.371203,	 408.944205,	 2.163386 
1.125000,	 0.067605,	 1.753412,	 854.267665,	 206.857372,	 425.628371,	 214261.324170,	 413.612746,	 2.125069 
1.155000,	 0.074919,	 1.768263,	 850.841710,	 213.918576,	 433.049375,	 219843.424587,	 417.202918,	 2.102865 
1.185000,	 0.082234,	 1.752388,	 851.956635,	 219.517477,	 439.642483,	 221186.821449,	 420.366845,	 2.092893 
1.215000,	 0.089548,	 1.734673,	 848.370766,	 224.074238,	 450.801700,	 224508.355554,	 425.668391,	 2.061378 
1.245000,	 0.096863,	 1.698978,	 847.411026,	 224.989457,	 462.038413,	 225369.406592,	 430.940857,	 2.034548 
1.275000,	 0.104177,	 1.634312,	 858.216290,	 228.717461,	 471.013195,	 221002.513375,	 435.106094,	 2.041273 
1.305000,	 0.111491,	 1.593414,	 863.477952,	 228.213603,	 483.058056,	 220982.170634,	 440.634293,	 2.026912 
1.335000,	 0.118806,	 1.557395,	 869.116334,	 228.139914,	 494.268576,	 220999.370838,	 445.717955,	 2.015985 
1.365000,	 0.126120,	 1.545071,	 857.609808,	 223.984506,	 511.204474,	 226763.079402,	 453.289806,	 1.955430 
1.395000,	 0.133435,	 1.520537,	 853.990045,	 223.579815,	 522.518779,	 228101.494988,	 458.278603,	 1.926279 
1.425000,	 0.140749,	 1.496238,	 862.750925,	 222.680948,	 527.488289,	 226591.050105,	 460.452717,	 1.935107 
1.455000,	 0.148063,	 1.487270,	 867.945538,	 222.265697,	 533.985941,	 228007.339743,	 463.279988,	 1.933934 
1.485000,	 0.155378,	 1.482814,	 868.666831,	 222.220389,	 540.003820,	 229886.062531,	 465.883195,	 1.924603 
1.515000,	 0.162692,	 1.497826,	 860.631116,	 220.258078,	 547.732669,	 235536.984059,	 469.205346,	 1.893348 
1.545000,	 0.170006,	 1.494363,	 861.328943,	 218.796063,	 551.192297,	 236476.701555,	 470.684827,	 1.888066 
1.575000,	 0.177320,	 1.490157,	 862.229080,	 218.366382,	 552.937311,	 236557.668640,	 471.429307,	 1.886711 
1.605000,	 0.184635,	 1.485184,	 861.744886,	 217.839578,	 553.775842,	 236125.827386,	 471.786633,	 1.884013 
1.635000,	 0.191949,	 1.482733,	 857.809392,	 217.283038,	 555.580643,	 236504.357991,	 472.554804,	 1.872588 
1.665000,	 0.199264,	 1.475061,	 859.123555,	 216.732266,	 555.146529,	 235096.840635,	 472.370147,	 1.875732 
1.695000,	 0.206578,	 1.476268,	 856.856268,	 216.257203,	 555.703514,	 235525.300082,	 472.607055,	 1.869894 
1.725000,	 0.213892,	 1.474836,	 856.355625,	 216.275811,	 555.843519,	 235356.152021,	 472.666586,	 1.868641 
1.755000,	 0.221207,	 1.475974,	 857.548796,	 215.762101,	 555.560267,	 235417.630380,	 472.546138,	 1.871300 
1.785000,	 0.228521,	 1.478306,	 858.151391,	 215.660209,	 555.595755,	 235804.745669,	 472.561231,	 1.872424 
1.815000,	 0.235836,	 1.477295,	 859.564798,	 215.748680,	 555.025639,	 235401.667859,	 472.318713,	 1.876334 
1.845000,	 0.243150,	 1.479581,	 858.746793,	 216.207537,	 555.534748,	 235982.177614,	 472.535285,	 1.874032 
1.875000,	 0.250464,	 1.479738,	 859.241288,	 216.639172,	 555.450467,	 235971.448396,	 472.499439,	 1.875412 
1.905000,	 0.257779,	 1.477221,	 860.062916,	 216.303460,	 554.873272,	 235325.275529,	 472.253877,	 1.877900 
1.935000,	 0.265093,	 1.474756,	 861.798344,	 216.568181,	 554.139299,	 234621.862770,	 471.941431,	 1.882847 
1.965000,	 0.272407,	 1.471602,	 864.374636,	 216.530970,	 552.992848,	 233635.683080,	 471.452981,	 1.890079 
1.995000,	 0.278502,	 1.391010,	 871.752746,	 195.876922,	 545.096715,	 217687.226836,	 468.074963,	 1.908856 
2.025000,	 0.280940,	 1.211322,	 884.852269,	 145.575857,	 525.988419,	 182921.555820,	 459.797621,	 1.950309 
2.055000,	 0.280940,	 1.070118,	 900.741277,	 99.478482,	 505.652330,	 155350.538793,	 450.821517,	 2.010148 
2.085000,	 0.280940,	 0.972649,	 917.182252,	 63.440763,	 485.975117,	 135706.080996,	 441.962728,	 2.080206 
2.115000,	 0.280940,	 0.909905,	 931.727307,	 38.354319,	 467.667036,	 122169.258291,	 433.557805,	 2.150847 
2.145000,	 0.280940,	 0.878280,	 936.973577,	 23.013116,	 454.326889,	 114559.410595,	 427.329475,	 2.193287 