TITLE = "Initial State"
VARIABLES = "X", "Y", "rho", "u", "v", "T", "p", "c", "M"
ZONE I=50, J=50, DATAPACKING=POINT
0.010000,	 0.000015,	 1.000000,	 100.000000,	 -5.000000,	 300.000000,	 86129.212707,	 347.247603,	 0.288339 
0.030000,	 0.000015,	 1.000000,	 100.000000,	 -5.000000,	 300.000000,	 86129.212707,	 347.247603,	 0.288339 
0.050000,	 0.000015,	 1.000000,	 100.000000,	 -5.000000,	 300.000000,	 86129.212707,	 347.247603,	 0.288339 
0.070000,	 0.000015,	 1.000000,	 100.000000,	 -5.000000,	 300.000000,	 86129.212707,	 347.247603,	 0.288339 
0.090000,	 0.000015,	 1.000000,	 100.000000,	 -5.000000,	 300.000000,	 86129.212707,	 347.247603,	 0.288339 
0.110000,	 0.000015,	 1.000000,	 100.000000,	 -5.000000,	 300.000000,	 86129.212707,	 347.247603,	 0.288339 
0.130000,	 0.000015,	 1.000000,	 100.000000,	 -5.000000,	 300.000000,	 86129.212707,	 347.247603,	 0.288339 
0.150000,	 0.000015,	 1.000000,	 100.000000,	 -5.000000,	 300.000000,	 86129.212707,	 347.247603,	 0.288339 
0.170000,	 0.000015,	 1.000000,	 100.000000,	 -5.000000,	 300.000000,	 86129.212707,	 347.247603,	 0.288339 
0.190000,	 0.000015,	 1.000000,	 100.000000,	 -5.000000,	 300.000000,	 86129.212707,	 347.247603,	 0.288339 
0.210000,	 0.000015,	 1.000000,	 100.000000,	 -5.000000,	 300.000000,	 86129.212707,	 347.247603,	 0.288339 
0.230000,	 0.000015,	 1.000000,	 100.000000,	 -5.000000,	 300.000000,	 86129.212707,	 347.247603,	 0.288339 
0.250000,	 0.000015,	 1.000000,	 100.000000,	 -5.000000,	 300.000000,	 86129.212707,	 347.247603,	 0.288339 
0.270000,	 0.000015,	 1.000000,	 100.000000,	 -5.000000,	 300.000000,	 86129.212707,	 347.247603,	 0.288339 
0.290000,	 0.000015,	 1.000000,	 100.000000,	 -5.000000,	 300.000000,	 86129.212707,	 347.247603,	 0.288339 
0.310000,	 0.000015,	 1.000000,	 100.000000,	 -5.000000,	 300.000000,	 86129.212707,	 347.247603,	 0.288339 
0.330000,	 0.000015,	 1.000000,	 100.000000,	 -5.000000,	 300.000000,	 86129.212707,	 347.247603,	 0.288339 
0.350000,	 0.000015,	 1.000000,	 100.000000,	 -5.000000,	 300.000000,	 86129.212707,	 347.247603,	 0.288339 
0.370000,	 0.000015,	 1.000000,	 100.000000,	 -5.000000,	 300.000000,	 86129.212707,	 347.247603,	 0.288339 
0.390000,	 0.000015,	 1.000000,	 100.000000,	 -5.000000,	 300.000000,	 86129.212707,	 347.247603,	 0.288339 
0.410000,	 0.000015,	 1.000000,	 100.000000,	 -5.000000,	 300.000000,	 86129.212707,	 347.247603,	 0.288339 
0.430000,	 0.000015,	 1.000000,	 100.000000,	 -5.000000,	 300.000000,	 86129.212707,	 347.247603,	 0.288339 
0.450000,	 0.000015,	 1.000000,	 100.000000,	 -5.000000,	 300.000000,	 86129.212707,	 347.247603,	 0.288339 
0.470000,	 0.000015,	 1.000000,	 100.000000,	 -5.000000,	 300.000000,	 86129.212707,	 347.247603,	 0.288339 
0.490000,	 0.000015,	 1.000000,	 100.000000,	 -5.000000,	 300.000000,	 86129.212707,	 347.247603,	 0.288339 
0.510000,	 0.000015,	 1.000000,	 100.000000,	 -5.000000,	 300.000000,	 86129.212707,	 347.247603,	 0.288339 
0.530000,	 0.000015,	 1.000000,	 100.000000,	 -5.000000,	 300.000000,	 86129.212707,	 347.247603,	 0.288339 
0.550000,	 0.000015,	 1.000000,	 100.000000,	 -5.000000,	 300.000000,	 86129.212707,	 347.247603,	 0.288339 
0.570000,	 0.000015,	 1.000000,	 100.000000,	 -5.000000,	 300.000000,	 86129.212707,	 347.247603,	 0.288339 
0.590000,	 0.000015,	 1.000000,	 100.000000,	 -5.000000,	 300.000000,	 86129.212707,	 347.247603,	 0.288339 
0.610000,	 0.000015,	 1.000000,	 100.000000,	 -5.000000,	 300.000000,	 86129.212707,	 347.247603,	 0.288339 
0.630000,	 0.000015,	 1.000000,	 100.000000,	 -5.000000,	 300.000000,	 86129.212707,	 347.247603,	 0.288339 
0.650000,	 0.000015,	 1.000000,	 100.000000,	 -5.000000,	 300.000000,	 86129.212707,	 347.247603,	 0.288339 
0.670000,	 0.000015,	 1.000000,	 100.000000,	 -5.000000,	 300.000000,	 86129.212707,	 347.247603,	 0.288339 
0.690000,	 0.000015,	 1.000000,	 100.000000,	 -5.000000,	 300.000000,	 86129.212707,	 347.247603,	 0.288339 
0.710000,	 0.000015,	 1.000000,	 100.000000,	 -5.000000,	 300.000000,	 86129.212707,	 347.247603,	 0.288339 
0.730000,	 0.000015,	 1.000000,	 100.000000,	 -5.000000,	 300.000000,	 86129.212707,	 347.247603,	 0.288339 
0.750000,	 0.000015,	 1.000000,	 100.000000,	 -5.000000,	 300.000000,	 86129.212707,	 347.247603,	 0.288339 
0.770000,	 0.000015,	 1.000000,	 100.000000,	 -5.000000,	 300.000000,	 86129.212707,	 347.247603,	 0.288339 
0.790000,	 0.000015,	 1.000000,	 100.000000,	 -5.000000,	 300.000000,	 86129.212707,	 347.247603,	 0.288339 
0.810000,	 0.000015,	 1.000000,	 100.000000,	 -5.000000,	 300.000000,	 86129.212707,	 347.247603,	 0.288339 
0.830000,	 0.000015,	 1.000000,	 100.000000,	 -5.000000,	 300.000000,	 86129.212707,	 347.247603,	 0.288339 
0.850000,	 0.000015,	 1.000000,	 100.000000,	 -5.000000,	 300.000000,	 86129.212707,	 347.247603,	 0.288339 
0.870000,	 0.000015,	 1.000000,	 100.000000,	 -5.000000,	 300.000000,	 86129.212707,	 347.247603,	 0.288339 
0.890000,	 0.000015,	 1.000000,	 100.000000,	 -5.000000,	 300.000000,	 86129.212707,	 347.247603,	 0.288339 
0.910000,	 0.000015,	 1.000000,	 100.000000,	 -5.000000,	 300.000000,	 86129.212707,	 347.247603,	 0.288339 
0.930000,	 0.000015,	 1.000000,	 100.000000,	 -5.000000,	 300.000000,	 86129.212707,	 347.247603,	 0.288339 
0.950000,	 0.000015,	 1.000000,	 100.000000,	 -5.000000,	 300.000000,	 86129.212707,	 347.247603,	 0.288339 
0.970000,	 0.000015,	 1.000000,	 100.000000,	 -5.000000,	 300.000000,	 86129.212707,	 347.247603,	 0.288339 
0.990000,	 0.000015,	 1.000000,	 100.000000,	 -5.000000,	 300.000000,	 86129.212707,	 347.247603,	 0.288339 
0.010000,	 0.000047,	 1.000000,	 100.000000,	 -5.000000,	 300.000000,	 86129.212707,	 347.247603,	 0.288339 
0.030000,	 0.000047,	 1.000000,	 100.000000,	 -5.000000,	 300.000000,	 86129.212707,	 347.247603,	 0.288339 
0.050000,	 0.000047,	 1.000000,	 100.000000,	 -5.000000,	 300.000000,	 86129.212707,	 347.247603,	 0.288339 
0.070000,	 0.000047,	 1.000000,	 100.000000,	 -5.000000,	 300.000000,	 86129.212707,	 347.247603,	 0.288339 
0.090000,	 0.000047,	 1.000000,	 100.000000,	 -5.000000,	 300.000000,	 86129.212707,	 347.247603,	 0.288339 
0.110000,	 0.000047,	 1.000000,	 100.000000,	 -5.000000,	 300.000000,	 86129.212707,	 347.247603,	 0.288339 
0.130000,	 0.000047,	 1.000000,	 100.000000,	 -5.000000,	 300.000000,	 86129.212707,	 347.247603,	 0.288339 
0.150000,	 0.000047,	 1.000000,	 100.000000,	 -5.000000,	 300.000000,	 86129.212707,	 347.247603,	 0.288339 
0.170000,	 0.000047,	 1.000000,	 100.000000,	 -5.000000,	 300.000000,	 86129.212707,	 347.247603,	 0.288339 
0.190000,	 0.000047,	 1.000000,	 100.000000,	 -5.000000,	 300.000000,	 86129.212707,	 347.247603,	 0.288339 
0.210000,	 0.000047,	 1.000000,	 100.000000,	 -5.000000,	 300.000000,	 86129.212707,	 347.247603,	 0.288339 
0.230000,	 0.000047,	 1.000000,	 100.000000,	 -5.000000,	 300.000000,	 86129.212707,	 347.247603,	 0.288339 
0.250000,	 0.000047,	 1.000000,	 100.000000,	 -5.000000,	 300.000000,	 86129.212707,	 347.247603,	 0.288339 
0.270000,	 0.000047,	 1.000000,	 100.000000,	 -5.000000,	 300.000000,	 86129.212707,	 347.247603,	 0.288339 
0.290000,	 0.000047,	 1.000000,	 100.000000,	 -5.000000,	 300.000000,	 86129.212707,	 347.247603,	 0.288339 
0.310000,	 0.000047,	 1.000000,	 100.000000,	 -5.000000,	 300.000000,	 86129.212707,	 347.247603,	 0.288339 
0.330000,	 0.000047,	 1.000000,	 100.000000,	 -5.000000,	 300.000000,	 86129.212707,	 347.247603,	 0.288339 
0.350000,	 0.000047,	 1.000000,	 100.000000,	 -5.000000,	 300.000000,	 86129.212707,	 347.247603,	 0.288339 
0.370000,	 0.000047,	 1.000000,	 100.000000,	 -5.000000,	 300.000000,	 86129.212707,	 347.247603,	 0.288339 
0.390000,	 0.000047,	 1.000000,	 100.000000,	 -5.000000,	 300.000000,	 86129.212707,	 347.247603,	 0.288339 
0.410000,	 0.000047,	 1.000000,	 100.000000,	 -5.000000,	 300.000000,	 86129.212707,	 347.247603,	 0.288339 
0.430000,	 0.000047,	 1.000000,	 100.000000,	 -5.000000,	 300.000000,	 86129.212707,	 347.247603,	 0.288339 
0.450000,	 0.000047,	 1.000000,	 100.000000,	 -5.000000,	 300.000000,	 86129.212707,	 347.247603,	 0.288339 
0.470000,	 0.000047,	 1.000000,	 100.000000,	 -5.000000,	 300.000000,	 86129.212707,	 347.247603,	 0.288339 
0.490000,	 0.000047,	 1.000000,	 100.000000,	 -5.000000,	 300.000000,	 86129.212707,	 347.247603,	 0.288339 
0.510000,	 0.000047,	 1.000000,	 100.000000,	 -5.000000,	 300.000000,	 86129.212707,	 347.247603,	 0.288339 
0.530000,	 0.000047,	 1.000000,	 100.000000,	 -5.000000,	 300.000000,	 86129.212707,	 347.247603,	 0.288339 
0.550000,	 0.000047,	 1.000000,	 100.000000,	 -5.000000,	 300.000000,	 86129.212707,	 347.247603,	 0.288339 
0.570000,	 0.000047,	 1.000000,	 100.000000,	 -5.000000,	 300.000000,	 86129.212707,	 347.247603,	 0.288339 
0.590000,	 0.000047,	 1.000000,	 100.000000,	 -5.000000,	 300.000000,	 86129.212707,	 347.247603,	 0.288339 
0.610000,	 0.000047,	 1.000000,	 100.000000,	 -5.000000,	 300.000000,	 86129.212707,	 347.247603,	 0.288339 
0.630000,	 0.000047,	 1.000000,	 100.000000,	 -5.000000,	 300.000000,	 86129.212707,	 347.247603,	 0.288339 
0.650000,	 0.000047,	 1.000000,	 100.000000,	 -5.000000,	 300.000000,	 86129.212707,	 347.247603,	 0.288339 
0.670000,	 0.000047,	 1.000000,	 100.000000,	 -5.000000,	 300.000000,	 86129.212707,	 347.247603,	 0.288339 
0.690000,	 0.000047,	 1.000000,	 100.000000,	 -5.000000,	 300.000000,	 86129.212707,	 347.247603,	 0.288339 
0.710000,	 0.000047,	 1.000000,	 100.000000,	 -5.000000,	 300.000000,	 86129.212707,	 347.247603,	 0.288339 
0.730000,	 0.000047,	 1.000000,	 100.000000,	 -5.000000,	 300.000000,	 86129.212707,	 347.247603,	 0.288339 
0.750000,	 0.000047,	 1.000000,	 100.000000,	 -5.000000,	 300.000000,	 86129.212707,	 347.247603,	 0.288339 
0.770000,	 0.000047,	 1.000000,	 100.000000,	 -5.000000,	 300.000000,	 86129.212707,	 347.247603,	 0.288339 
0.790000,	 0.000047,	 1.000000,	 100.000000,	 -5.000000,	 300.000000,	 86129.212707,	 347.247603,	 0.288339 
0.810000,	 0.000047,	 1.000000,	 100.000000,	 -5.000000,	 300.000000,	 86129.212707,	 347.247603,	 0.288339 
0.830000,	 0.000047,	 1.000000,	 100.000000,	 -5.000000,	 300.000000,	 86129.212707,	 347.247603,	 0.288339 
0.850000,	 0.000047,	 1.000000,	 100.000000,	 -5.000000,	 300.000000,	 86129.212707,	 347.247603,	 0.288339 
0.870000,	 0.000047,	 1.000000,	 100.000000,	 -5.000000,	 300.000000,	 86129.212707,	 347.247603,	 0.288339 
0.890000,	 0.000047,	 1.000000,	 100.000000,	 -5.000000,	 300.000000,	 86129.212707,	 347.247603,	 0.288339 
0.910000,	 0.000047,	 1.000000,	 100.000000,	 -5.000000,	 300.000000,	 86129.212707,	 347.247603,	 0.288339 
0.930000,	 0.000047,	 1.000000,	 100.000000,	 -5.000000,	 300.000000,	 86129.212707,	 347.247603,	 0.288339 
0.950000,	 0.000047,	 1.000000,	 100.000000,	 -5.000000,	 300.000000,	 86129.212707,	 347.247603,	 0.288339 
0.970000,	 0.000047,	 1.000000,	 100.000000,	 -5.000000,	 300.000000,	 86129.212707,	 347.247603,	 0.288339 
0.990000,	 0.000047,	 1.000000,	 100.000000,	 -5.000000,	 300.000000,	 86129.212707,	 347.247603,	 0.288339 
0.010000,	 0.000086,	 1.000000,	 100.000000,	 -5.000000,	 300.000000,	 86129.212707,	 347.247603,	 0.288339 
0.030000,	 0.000086,	 1.000000,	 100.000000,	 -5.000000,	 300.000000,	 86129.212707,	 347.247603,	 0.288339 
0.050000,	 0.000086,	 1.000000,	 100.000000,	 -5.000000,	 300.000000,	 86129.212707,	 347.247603,	 0.288339 
0.070000,	 0.000086,	 1.000000,	 100.000000,	 -5.000000,	 300.000000,	 86129.212707,	 347.247603,	 0.288339 
0.090000,	 0.000086,	 1.000000,	 100.000000,	 -5.000000,	 300.000000,	 86129.212707,	 347.247603,	 0.288339 
0.110000,	 0.000086,	 1.000000,	 100.000000,	 -5.000000,	 300.000000,	 86129.212707,	 347.247603,	 0.288339 
0.130000,	 0.000086,	 1.000000,	 100.000000,	 -5.000000,	 300.000000,	 86129.212707,	 347.247603,	 0.288339 
0.150000,	 0.000086,	 1.000000,	 100.000000,	 -5.000000,	 300.000000,	 86129.212707,	 347.247603,	 0.288339 
0.170000,	 0.000086,	 1.000000,	 100.000000,	 -5.000000,	 300.000000,	 86129.212707,	 347.247603,	 0.288339 
0.190000,	 0.000086,	 1.000000,	 100.000000,	 -5.000000,	 300.000000,	 86129.212707,	 347.247603,	 0.288339 
0.210000,	 0.000086,	 1.000000,	 100.000000,	 -5.000000,	 300.000000,	 86129.212707,	 347.247603,	 0.288339 
0.230000,	 0.000086,	 1.000000,	 100.000000,	 -5.000000,	 300.000000,	 86129.212707,	 347.247603,	 0.288339 
0.250000,	 0.000086,	 1.000000,	 100.000000,	 -5.000000,	 300.000000,	 86129.212707,	 347.247603,	 0.288339 
0.270000,	 0.000086,	 1.000000,	 100.000000,	 -5.000000,	 300.000000,	 86129.212707,	 347.247603,	 0.288339 
0.290000,	 0.000086,	 1.000000,	 100.000000,	 -5.000000,	 300.000000,	 86129.212707,	 347.247603,	 0.288339 
0.310000,	 0.000086,	 1.000000,	 100.000000,	 -5.000000,	 300.000000,	 86129.212707,	 347.247603,	 0.288339 
0.330000,	 0.000086,	 1.000000,	 100.000000,	 -5.000000,	 300.000000,	 86129.212707,	 347.247603,	 0.288339 
0.350000,	 0.000086,	 1.000000,	 100.000000,	 -5.000000,	 300.000000,	 86129.212707,	 347.247603,	 0.288339 
0.370000,	 0.000086,	 1.000000,	 100.000000,	 -5.000000,	 300.000000,	 86129.212707,	 347.247603,	 0.288339 
0.390000,	 0.000086,	 1.000000,	 100.000000,	 -5.000000,	 300.000000,	 86129.212707,	 347.247603,	 0.288339 
0.410000,	 0.000086,	 1.000000,	 100.000000,	 -5.000000,	 300.000000,	 86129.212707,	 347.247603,	 0.288339 
0.430000,	 0.000086,	 1.000000,	 100.000000,	 -5.000000,	 300.000000,	 86129.212707,	 347.247603,	 0.288339 
0.450000,	 0.000086,	 1.000000,	 100.000000,	 -5.000000,	 300.000000,	 86129.212707,	 347.247603,	 0.288339 
0.470000,	 0.000086,	 1.000000,	 100.000000,	 -5.000000,	 300.000000,	 86129.212707,	 347.247603,	 0.288339 
0.490000,	 0.000086,	 1.000000,	 100.000000,	 -5.000000,	 300.000000,	 86129.212707,	 347.247603,	 0.288339 
0.510000,	 0.000086,	 1.000000,	 100.000000,	 -5.000000,	 300.000000,	 86129.212707,	 347.247603,	 0.288339 
0.530000,	 0.000086,	 1.000000,	 100.000000,	 -5.000000,	 300.000000,	 86129.212707,	 347.247603,	 0.288339 
0.550000,	 0.000086,	 1.000000,	 100.000000,	 -5.000000,	 300.000000,	 86129.212707,	 347.247603,	 0.288339 
0.570000,	 0.000086,	 1.000000,	 100.000000,	 -5.000000,	 300.000000,	 86129.212707,	 347.247603,	 0.288339 
0.590000,	 0.000086,	 1.000000,	 100.000000,	 -5.000000,	 300.000000,	 86129.212707,	 347.247603,	 0.288339 
0.610000,	 0.000086,	 1.000000,	 100.000000,	 -5.000000,	 300.000000,	 86129.212707,	 347.247603,	 0.288339 
0.630000,	 0.000086,	 1.000000,	 100.000000,	 -5.000000,	 300.000000,	 86129.212707,	 347.247603,	 0.288339 
0.650000,	 0.000086,	 1.000000,	 100.000000,	 -5.000000,	 300.000000,	 86129.212707,	 347.247603,	 0.288339 
0.670000,	 0.000086,	 1.000000,	 100.000000,	 -5.000000,	 300.000000,	 86129.212707,	 347.247603,	 0.288339 
0.690000,	 0.000086,	 1.000000,	 100.000000,	 -5.000000,	 300.000000,	 86129.212707,	 347.247603,	 0.288339 
0.710000,	 0.000086,	 1.000000,	 100.000000,	 -5.000000,	 300.000000,	 86129.212707,	 347.247603,	 0.288339 
0.730000,	 0.000086,	 1.000000,	 100.000000,	 -5.000000,	 300.000000,	 86129.212707,	 347.247603,	 0.288339 
0.750000,	 0.000086,	 1.000000,	 100.000000,	 -5.000000,	 300.000000,	 86129.212707,	 347.247603,	 0.288339 
0.770000,	 0.000086,	 1.000000,	 100.000000,	 -5.000000,	 300.000000,	 86129.212707,	 347.247603,	 0.288339 
0.790000,	 0.000086,	 1.000000,	 100.000000,	 -5.000000,	 300.000000,	 86129.212707,	 347.247603,	 0.288339 
0.810000,	 0.000086,	 1.000000,	 100.000000,	 -5.000000,	 300.000000,	 86129.212707,	 347.247603,	 0.288339 
0.830000,	 0.000086,	 1.000000,	 100.000000,	 -5.000000,	 300.000000,	 86129.212707,	 347.247603,	 0.288339 
0.850000,	 0.000086,	 1.000000,	 100.000000,	 -5.000000,	 300.000000,	 86129.212707,	 347.247603,	 0.288339 
0.870000,	 0.000086,	 1.000000,	 100.000000,	 -5.000000,	 300.000000,	 86129.212707,	 347.247603,	 0.288339 
0.890000,	 0.000086,	 1.000000,	 100.000000,	 -5.000000,	 300.000000,	 86129.212707,	 347.247603,	 0.288339 
0.910000,	 0.000086,	 1.000000,	 100.000000,	 -5.000000,	 300.000000,	 86129.212707,	 347.247603,	 0.288339 
0.930000,	 0.000086,	 1.000000,	 100.000000,	 -5.000000,	 300.000000,	 86129.212707,	 347.247603,	 0.288339 
0.950000,	 0.000086,	 1.000000,	 100.000000,	 -5.000000,	 300.000000,	 86129.212707,	 347.247603,	 0.288339 
0.970000,	 0.000086,	 1.000000,	 100.000000,	 -5.000000,	 300.000000,	 86129.212707,	 347.247603,	 0.288339 
0.990000,	 0.000086,	 1.000000,	 100.000000,	 -5.000000,	 300.000000,	 86129.212707,	 347.247603,	 0.288339 
0.010000,	 0.000130,	 1.000000,	 100.000000,	 -5.000000,	 300.000000,	 86129.212707,	 347.247603,	 0.288339 
0.030000,	 0.000130,	 1.000000,	 100.000000,	 -5.000000,	 300.000000,	 86129.212707,	 347.247603,	 0.288339 
0.050000,	 0.000130,	 1.000000,	 100.000000,	 -5.000000,	 300.000000,	 86129.212707,	 347.247603,	 0.288339 
0.070000,	 0.000130,	 1.000000,	 100.000000,	 -5.000000,	 300.000000,	 86129.212707,	 347.247603,	 0.288339 
0.090000,	 0.000130,	 1.000000,	 100.000000,	 -5.000000,	 300.000000,	 86129.212707,	 347.247603,	 0.288339 
0.110000,	 0.000130,	 1.000000,	 100.000000,	 -5.000000,	 300.000000,	 86129.212707,	 347.247603,	 0.288339 
0.130000,	 0.000130,	 1.000000,	 100.000000,	 -5.000000,	 300.000000,	 86129.212707,	 347.247603,	 0.288339 
0.150000,	 0.000130,	 1.000000,	 100.000000,	 -5.000000,	 300.000000,	 86129.212707,	 347.247603,	 0.288339 
0.170000,	 0.000130,	 1.000000,	 100.000000,	 -5.000000,	 300.000000,	 86129.212707,	 347.247603,	 0.288339 
0.190000,	 0.000130,	 1.000000,	 100.000000,	 -5.000000,	 300.000000,	 86129.212707,	 347.247603,	 0.288339 
0.210000,	 0.000130,	 1.000000,	 100.000000,	 -5.000000,	 300.000000,	 86129.212707,	 347.247603,	 0.288339 
0.230000,	 0.000130,	 1.000000,	 100.000000,	 -5.000000,	 300.000000,	 86129.212707,	 347.247603,	 0.288339 
0.250000,	 0.000130,	 1.000000,	 100.000000,	 -5.000000,	 300.000000,	 86129.212707,	 347.247603,	 0.288339 
0.270000,	 0.000130,	 1.000000,	 100.000000,	 -5.000000,	 300.000000,	 86129.212707,	 347.247603,	 0.288339 
0.290000,	 0.000130,	 1.000000,	 100.000000,	 -5.000000,	 300.000000,	 86129.212707,	 347.247603,	 0.288339 
0.310000,	 0.000130,	 1.000000,	 100.000000,	 -5.000000,	 300.000000,	 86129.212707,	 347.247603,	 0.288339 
0.330000,	 0.000130,	 1.000000,	 100.000000,	 -5.000000,	 300.000000,	 86129.212707,	 347.247603,	 0.288339 
0.350000,	 0.000130,	 1.000000,	 100.000000,	 -5.000000,	 300.000000,	 86129.212707,	 347.247603,	 0.288339 
0.370000,	 0.000130,	 1.000000,	 100.000000,	 -5.000000,	 300.000000,	 86129.212707,	 347.247603,	 0.288339 
0.390000,	 0.000130,	 1.000000,	 100.000000,	 -5.000000,	 300.000000,	 86129.212707,	 347.247603,	 0.288339 
0.410000,	 0.000130,	 1.000000,	 100.000000,	 -5.000000,	 300.000000,	 86129.212707,	 347.247603,	 0.288339 
0.430000,	 0.000130,	 1.000000,	 100.000000,	 -5.000000,	 300.000000,	 86129.212707,	 347.247603,	 0.288339 
0.450000,	 0.000130,	 1.000000,	 100.000000,	 -5.000000,	 300.000000,	 86129.212707,	 347.247603,	 0.288339 
0.470000,	 0.000130,	 1.000000,	 100.000000,	 -5.000000,	 300.000000,	 86129.212707,	 347.247603,	 0.288339 
0.490000,	 0.000130,	 1.000000,	 100.000000,	 -5.000000,	 300.000000,	 86129.212707,	 347.247603,	 0.288339 
0.510000,	 0.000130,	 1.000000,	 100.000000,	 -5.000000,	 300.000000,	 86129.212707,	 347.247603,	 0.288339 
0.530000,	 0.000130,	 1.000000,	 100.000000,	 -5.000000,	 300.000000,	 86129.212707,	 347.247603,	 0.288339 
0.550000,	 0.000130,	 1.000000,	 100.000000,	 -5.000000,	 300.000000,	 86129.212707,	 347.247603,	 0.288339 
0.570000,	 0.000130,	 1.000000,	 100.000000,	 -5.000000,	 300.000000,	 86129.212707,	 347.247603,	 0.288339 
0.590000,	 0.000130,	 1.000000,	 100.000000,	 -5.000000,	 300.000000,	 86129.212707,	 347.247603,	 0.288339 
0.610000,	 0.000130,	 1.000000,	 100.000000,	 -5.000000,	 300.000000,	 86129.212707,	 347.247603,	 0.288339 
0.630000,	 0.000130,	 1.000000,	 100.000000,	 -5.000000,	 300.000000,	 86129.212707,	 347.247603,	 0.288339 
0.650000,	 0.000130,	 1.000000,	 100.000000,	 -5.000000,	 300.000000,	 86129.212707,	 347.247603,	 0.288339 
0.670000,	 0.000130,	 1.000000,	 100.000000,	 -5.000000,	 300.000000,	 86129.212707,	 347.247603,	 0.288339 
0.690000,	 0.000130,	 1.000000,	 100.000000,	 -5.000000,	 300.000000,	 86129.212707,	 347.247603,	 0.288339 
0.710000,	 0.000130,	 1.000000,	 100.000000,	 -5.000000,	 300.000000,	 86129.212707,	 347.247603,	 0.288339 
0.730000,	 0.000130,	 1.000000,	 100.000000,	 -5.000000,	 300.000000,	 86129.212707,	 347.247603,	 0.288339 
0.750000,	 0.000130,	 1.000000,	 100.000000,	 -5.000000,	 300.000000,	 86129.212707,	 347.247603,	 0.288339 
0.770000,	 0.000130,	 1.000000,	 100.000000,	 -5.000000,	 300.000000,	 86129.212707,	 347.247603,	 0.288339 
0.790000,	 0.000130,	 1.000000,	 100.000000,	 -5.000000,	 300.000000,	 86129.212707,	 347.247603,	 0.288339 
0.810000,	 0.000130,	 1.000000,	 100.000000,	 -5.000000,	 300.000000,	 86129.212707,	 347.247603,	 0.288339 
0.830000,	 0.000130,	 1.000000,	 100.000000,	 -5.000000,	 300.000000,	 86129.212707,	 347.247603,	 0.288339 
0.850000,	 0.000130,	 1.000000,	 100.000000,	 -5.000000,	 300.000000,	 86129.212707,	 347.247603,	 0.288339 
0.870000,	 0.000130,	 1.000000,	 100.000000,	 -5.000000,	 300.000000,	 86129.212707,	 347.247603,	 0.288339 
0.890000,	 0.000130,	 1.000000,	 100.000000,	 -5.000000,	 300.000000,	 86129.212707,	 347.247603,	 0.288339 
0.910000,	 0.000130,	 1.000000,	 100.000000,	 -5.000000,	 300.000000,	 86129.212707,	 347.247603,	 0.288339 
0.930000,	 0.000130,	 1.000000,	 100.000000,	 -5.000000,	 300.000000,	 86129.212707,	 347.247603,	 0.288339 
0.950000,	 0.000130,	 1.000000,	 100.000000,	 -5.000000,	 300.000000,	 86129.212707,	 347.247603,	 0.288339 
0.970000,	 0.000130,	 1.000000,	 100.000000,	 -5.000000,	 300.000000,	 86129.212707,	 347.247603,	 0.288339 
0.990000,	 0.000130,	 1.000000,	 100.000000,	 -5.000000,	 300.000000,	 86129.212707,	 347.247603,	 0.288339 
0.010000,	 0.000182,	 1.000000,	 100.000000,	 -5.000000,	 300.000000,	 86129.212707,	 347.247603,	 0.288339 
0.030000,	 0.000182,	 1.000000,	 100.000000,	 -5.000000,	 300.000000,	 86129.212707,	 347.247603,	 0.288339 
0.050000,	 0.000182,	 1.000000,	 100.000000,	 -5.000000,	 300.000000,	 86129.212707,	 347.247603,	 0.288339 
0.070000,	 0.000182,	 1.000000,	 100.000000,	 -5.000000,	 300.000000,	 86129.212707,	 347.247603,	 0.288339 
0.090000,	 0.000182,	 1.000000,	 100.000000,	 -5.000000,	 300.000000,	 86129.212707,	 347.247603,	 0.288339 
0.110000,	 0.000182,	 1.000000,	 100.000000,	 -5.000000,	 300.000000,	 86129.212707,	 347.247603,	 0.288339 
0.130000,	 0.000182,	 1.000000,	 100.000000,	 -5.000000,	 300.000000,	 86129.212707,	 347.247603,	 0.288339 
0.150000,	 0.000182,	 1.000000,	 100.000000,	 -5.000000,	 300.000000,	 86129.212707,	 347.247603,	 0.288339 
0.170000,	 0.000182,	 1.000000,	 100.000000,	 -5.000000,	 300.000000,	 86129.212707,	 347.247603,	 0.288339 
0.190000,	 0.000182,	 1.000000,	 100.000000,	 -5.000000,	 300.000000,	 86129.212707,	 347.247603,	 0.288339 
0.210000,	 0.000182,	 1.000000,	 100.000000,	 -5.000000,	 300.000000,	 86129.212707,	 347.247603,	 0.288339 
0.230000,	 0.000182,	 1.000000,	 100.000000,	 -5.000000,	 300.000000,	 86129.212707,	 347.247603,	 0.288339 
0.250000,	 0.000182,	 1.000000,	 100.000000,	 -5.000000,	 300.000000,	 86129.212707,	 347.247603,	 0.288339 
0.270000,	 0.000182,	 1.000000,	 100.000000,	 -5.000000,	 300.000000,	 86129.212707,	 347.247603,	 0.288339 
0.290000,	 0.000182,	 1.000000,	 100.000000,	 -5.000000,	 300.000000,	 86129.212707,	 347.247603,	 0.288339 
0.310000,	 0.000182,	 1.000000,	 100.000000,	 -5.000000,	 300.000000,	 86129.212707,	 347.247603,	 0.288339 
0.330000,	 0.000182,	 1.000000,	 100.000000,	 -5.000000,	 300.000000,	 86129.212707,	 347.247603,	 0.288339 
0.350000,	 0.000182,	 1.000000,	 100.000000,	 -5.000000,	 300.000000,	 86129.212707,	 347.247603,	 0.288339 
0.370000,	 0.000182,	 1.000000,	 100.000000,	 -5.000000,	 300.000000,	 86129.212707,	 347.247603,	 0.288339 
0.390000,	 0.000182,	 1.000000,	 100.000000,	 -5.000000,	 300.000000,	 86129.212707,	 347.247603,	 0.288339 
0.410000,	 0.000182,	 1.000000,	 100.000000,	 -5.000000,	 300.000000,	 86129.212707,	 347.247603,	 0.288339 
0.430000,	 0.000182,	 1.000000,	 100.000000,	 -5.000000,	 300.000000,	 86129.212707,	 347.247603,	 0.288339 
0.450000,	 0.000182,	 1.000000,	 100.000000,	 -5.000000,	 300.000000,	 86129.212707,	 347.247603,	 0.288339 
0.470000,	 0.000182,	 1.000000,	 100.000000,	 -5.000000,	 300.000000,	 86129.212707,	 347.247603,	 0.288339 
0.490000,	 0.000182,	 1.000000,	 100.000000,	 -5.000000,	 300.000000,	 86129.212707,	 347.247603,	 0.288339 
0.510000,	 0.000182,	 1.000000,	 100.000000,	 -5.000000,	 300.000000,	 86129.212707,	 347.247603,	 0.288339 
0.530000,	 0.000182,	 1.000000,	 100.000000,	 -5.000000,	 300.000000,	 86129.212707,	 347.247603,	 0.288339 
0.550000,	 0.000182,	 1.000000,	 100.000000,	 -5.000000,	 300.000000,	 86129.212707,	 347.247603,	 0.288339 
0.570000,	 0.000182,	 1.000000,	 100.000000,	 -5.000000,	 300.000000,	 86129.212707,	 347.247603,	 0.288339 
0.590000,	 0.000182,	 1.000000,	 100.000000,	 -5.000000,	 300.000000,	 86129.212707,	 347.247603,	 0.288339 
0.610000,	 0.000182,	 1.000000,	 100.000000,	 -5.000000,	 300.000000,	 86129.212707,	 347.247603,	 0.288339 
0.630000,	 0.000182,	 1.000000,	 100.000000,	 -5.000000,	 300.000000,	 86129.212707,	 347.247603,	 0.288339 
0.650000,	 0.000182,	 1.000000,	 100.000000,	 -5.000000,	 300.000000,	 86129.212707,	 347.247603,	 0.288339 
0.670000,	 0.000182,	 1.000000,	 100.000000,	 -5.000000,	 300.000000,	 86129.212707,	 347.247603,	 0.288339 
0.690000,	 0.000182,	 1.000000,	 100.000000,	 -5.000000,	 300.000000,	 86129.212707,	 347.247603,	 0.288339 
0.710000,	 0.000182,	 1.000000,	 100.000000,	 -5.000000,	 300.000000,	 86129.212707,	 347.247603,	 0.288339 
0.730000,	 0.000182,	 1.000000,	 100.000000,	 -5.000000,	 300.000000,	 86129.212707,	 347.247603,	 0.288339 
0.750000,	 0.000182,	 1.000000,	 100.000000,	 -5.000000,	 300.000000,	 86129.212707,	 347.247603,	 0.288339 
0.770000,	 0.000182,	 1.000000,	 100.000000,	 -5.000000,	 300.000000,	 86129.212707,	 347.247603,	 0.288339 
0.790000,	 0.000182,	 1.000000,	 100.000000,	 -5.000000,	 300.000000,	 86129.212707,	 347.247603,	 0.288339 
0.810000,	 0.000182,	 1.000000,	 100.000000,	 -5.000000,	 300.000000,	 86129.212707,	 347.247603,	 0.288339 
0.830000,	 0.000182,	 1.000000,	 100.000000,	 -5.000000,	 300.000000,	 86129.212707,	 347.247603,	 0.288339 
0.850000,	 0.000182,	 1.000000,	 100.000000,	 -5.000000,	 300.000000,	 86129.212707,	 347.247603,	 0.288339 
0.870000,	 0.000182,	 1.000000,	 100.000000,	 -5.000000,	 300.000000,	 86129.212707,	 347.247603,	 0.288339 
0.890000,	 0.000182,	 1.000000,	 100.000000,	 -5.000000,	 300.000000,	 86129.212707,	 347.247603,	 0.288339 
0.910000,	 0.000182,	 1.000000,	 100.000000,	 -5.000000,	 300.000000,	 86129.212707,	 347.247603,	 0.288339 
0.930000,	 0.000182,	 1.000000,	 100.000000,	 -5.000000,	 300.000000,	 86129.212707,	 347.247603,	 0.288339 
0.950000,	 0.000182,	 1.000000,	 100.000000,	 -5.000000,	 300.000000,	 86129.212707,	 347.247603,	 0.288339 
0.970000,	 0.000182,	 1.000000,	 100.000000,	 -5.000000,	 300.000000,	 86129.212707,	 347.247603,	 0.288339 
0.990000,	 0.000182,	 1.000000,	 100.000000,	 -5.000000,	 300.000000,	 86129.212707,	 347.247603,	 0.288339 
0.010000,	 0.000244,	 1.000000,	 100.000000,	 -5.000000,	 300.000000,	 86129.212707,	 347.247603,	 0.288339 
0.030000,	 0.000244,	 1.000000,	 100.000000,	 -5.000000,	 300.000000,	 86129.212707,	 347.247603,	 0.288339 
0.050000,	 0.000244,	 1.000000,	 100.000000,	 -5.000000,	 300.000000,	 86129.212707,	 347.247603,	 0.288339 
0.070000,	 0.000244,	 1.000000,	 100.000000,	 -5.000000,	 300.000000,	 86129.212707,	 347.247603,	 0.288339 
0.090000,	 0.000244,	 1.000000,	 100.000000,	 -5.000000,	 300.000000,	 86129.212707,	 347.247603,	 0.288339 
0.110000,	 0.000244,	 1.000000,	 100.000000,	 -5.000000,	 300.000000,	 86129.212707,	 347.247603,	 0.288339 
0.130000,	 0.000244,	 1.000000,	 100.000000,	 -5.000000,	 300.000000,	 86129.212707,	 347.247603,	 0.288339 
0.150000,	 0.000244,	 1.000000,	 100.000000,	 -5.000000,	 300.000000,	 86129.212707,	 347.247603,	 0.288339 
0.170000,	 0.000244,	 1.000000,	 100.000000,	 -5.000000,	 300.000000,	 86129.212707,	 347.247603,	 0.288339 
0.190000,	 0.000244,	 1.000000,	 100.000000,	 -5.000000,	 300.000000,	 86129.212707,	 347.247603,	 0.288339 
0.210000,	 0.000244,	 1.000000,	 100.000000,	 -5.000000,	 300.000000,	 86129.212707,	 347.247603,	 0.288339 
0.230000,	 0.000244,	 1.000000,	 100.000000,	 -5.000000,	 300.000000,	 86129.212707,	 347.247603,	 0.288339 
0.250000,	 0.000244,	 1.000000,	 100.000000,	 -5.000000,	 300.000000,	 86129.212707,	 347.247603,	 0.288339 
0.270000,	 0.000244,	 1.000000,	 100.000000,	 -5.000000,	 300.000000,	 86129.212707,	 347.247603,	 0.288339 
0.290000,	 0.000244,	 1.000000,	 100.000000,	 -5.000000,	 300.000000,	 86129.212707,	 347.247603,	 0.288339 
0.310000,	 0.000244,	 1.000000,	 100.000000,	 -5.000000,	 300.000000,	 86129.212707,	 347.247603,	 0.288339 
0.330000,	 0.000244,	 1.000000,	 100.000000,	 -5.000000,	 300.000000,	 86129.212707,	 347.247603,	 0.288339 
0.350000,	 0.000244,	 1.000000,	 100.000000,	 -5.000000,	 300.000000,	 86129.212707,	 347.247603,	 0.288339 
0.370000,	 0.000244,	 1.000000,	 100.000000,	 -5.000000,	 300.000000,	 86129.212707,	 347.247603,	 0.288339 
0.390000,	 0.000244,	 1.000000,	 100.000000,	 -5.000000,	 300.000000,	 86129.212707,	 347.247603,	 0.288339 
0.410000,	 0.000244,	 1.000000,	 100.000000,	 -5.000000,	 300.000000,	 86129.212707,	 347.247603,	 0.288339 
0.430000,	 0.000244,	 1.000000,	 100.000000,	 -5.000000,	 300.000000,	 86129.212707,	 347.247603,	 0.288339 
0.450000,	 0.000244,	 1.000000,	 100.000000,	 -5.000000,	 300.000000,	 86129.212707,	 347.247603,	 0.288339 
0.470000,	 0.000244,	 1.000000,	 100.000000,	 -5.000000,	 300.000000,	 86129.212707,	 347.247603,	 0.288339 