TITLE = "Final State"
VARIABLES = "X", "Y", "rho", "u", "v", "T", "p", "c", "M"
ZONE I=50, J=50, DATAPACKING=POINT
0.015000,	 0.010000,	 1.068869,	 88.872265,	 0.553242,	 317.697580,	 97491.650815,	 357.343250,	 0.248708 
0.045000,	 0.010000,	 1.089772,	 84.135136,	 0.304110,	 318.078034,	 99517.320100,	 357.557151,	 0.235307 
0.075000,	 0.010000,	 1.089366,	 84.016367,	 0.284016,	 318.057420,	 99473.811333,	 357.545564,	 0.234982 
0.105000,	 0.010000,	 1.089620,	 83.703066,	 0.325732,	 318.069472,	 99500.758086,	 357.552339,	 0.234102 
0.135000,	 0.010000,	 1.089775,	 83.341475,	 0.392421,	 318.110736,	 99527.755912,	 357.575531,	 0.233076 
0.165000,	 0.010000,	 1.089859,	 82.911815,	 0.474702,	 318.188433,	 99559.795716,	 357.619197,	 0.231848 
0.195000,	 0.010000,	 1.089876,	 82.404341,	 0.572739,	 318.308576,	 99598.930809,	 357.686706,	 0.230387 
0.225000,	 0.010000,	 1.090018,	 81.723606,	 0.285353,	 318.248970,	 99593.286772,	 357.653214,	 0.228501 
0.255000,	 0.010000,	 1.090929,	 80.821986,	 0.287638,	 318.206923,	 99663.337288,	 357.629587,	 0.225995 
0.285000,	 0.010000,	 1.091723,	 79.844951,	 0.323238,	 318.171345,	 99724.716799,	 357.609594,	 0.223276 
0.315000,	 0.010000,	 1.092525,	 78.741745,	 0.369228,	 318.146080,	 99790.034749,	 357.595395,	 0.220200 
0.345000,	 0.010000,	 1.093353,	 77.487307,	 0.423256,	 318.132532,	 99861.447930,	 357.587781,	 0.216698 
0.375000,	 0.010000,	 1.094216,	 76.057558,	 0.485701,	 318.131777,	 99939.974552,	 357.587356,	 0.212701 
0.405000,	 0.010000,	 1.095116,	 74.426446,	 0.557541,	 318.144760,	 100026.239710,	 357.594653,	 0.208137 
0.435000,	 0.010000,	 1.096058,	 72.565426,	 0.640146,	 318.172285,	 100121.015053,	 357.610122,	 0.202926 
0.465000,	 0.010000,	 1.096880,	 70.417646,	 0.737163,	 318.215542,	 100209.737127,	 357.634430,	 0.196909 
0.495000,	 0.011238,	 1.103875,	 68.821932,	 5.511125,	 318.167035,	 100833.367725,	 357.607171,	 0.193067 
0.525000,	 0.016188,	 1.114479,	 70.106931,	 15.688497,	 317.620790,	 101627.258502,	 357.300061,	 0.201066 
0.555000,	 0.023613,	 1.106645,	 73.869628,	 17.607404,	 317.111774,	 100751.118687,	 357.013643,	 0.212706 
0.585000,	 0.031037,	 1.103995,	 75.972579,	 18.411333,	 316.782171,	 100405.353146,	 356.828057,	 0.219074 
0.615000,	 0.038462,	 1.102421,	 77.537008,	 18.930590,	 316.520276,	 100179.320168,	 356.680525,	 0.223770 
0.645000,	 0.045888,	 1.101336,	 78.800101,	 19.324269,	 316.298161,	 100010.517902,	 356.555355,	 0.227552 
0.675000,	 0.053312,	 1.100520,	 79.867197,	 19.644890,	 316.103026,	 99874.794355,	 356.445352,	 0.230744 
0.705000,	 0.060737,	 1.099875,	 80.793893,	 19.916651,	 315.927832,	 99760.905872,	 356.346562,	 0.233516 
0.735000,	 0.068162,	 1.099347,	 81.613643,	 20.152948,	 315.768186,	 99662.672236,	 356.256515,	 0.235968 
0.765000,	 0.075588,	 1.098907,	 82.348327,	 20.362040,	 315.621108,	 99576.330719,	 356.173537,	 0.238166 
0.795000,	 0.083013,	 1.098534,	 83.013135,	 20.549416,	 315.484463,	 99499.413185,	 356.096428,	 0.240156 
0.825000,	 0.090438,	 1.098214,	 83.619071,	 20.718929,	 315.356672,	 99430.201456,	 356.024300,	 0.241971 
0.855000,	 0.097863,	 1.097939,	 84.174351,	 20.873383,	 315.236548,	 99367.456548,	 355.956486,	 0.243636 
0.885000,	 0.105288,	 1.097702,	 84.685259,	 21.014877,	 315.123190,	 99310.260963,	 355.892480,	 0.245169 
0.915000,	 0.112712,	 1.097497,	 85.156709,	 21.145020,	 315.015910,	 99257.917566,	 355.831895,	 0.246585 
0.945000,	 0.120138,	 1.097321,	 85.592610,	 21.265072,	 314.914165,	 99209.884714,	 355.774426,	 0.247895 
0.975000,	 0.127562,	 1.097169,	 85.996115,	 21.376039,	 314.817526,	 99165.733841,	 355.719833,	 0.249109 
1.005000,	 0.134988,	 1.097040,	 86.369796,	 21.478730,	 314.725640,	 99125.120817,	 355.667918,	 0.250235 
1.035000,	 0.142412,	 1.096931,	 86.715763,	 21.573807,	 314.638217,	 99087.765996,	 355.618516,	 0.251278 
1.065000,	 0.149838,	 1.096841,	 87.035763,	 21.661813,	 314.555012,	 99053.439966,	 355.571492,	 0.252244 
1.095000,	 0.157262,	 1.096769,	 87.331240,	 21.743198,	 314.475815,	 99021.953148,	 355.526727,	 0.253138 
1.125000,	 0.164687,	 1.096712,	 87.603389,	 21.818332,	 314.400447,	 98993.148079,	 355.484121,	 0.253962 
1.155000,	 0.172113,	 1.096672,	 87.853192,	 21.887525,	 314.328751,	 98966.893620,	 355.443587,	 0.254720 
1.185000,	 0.179538,	 1.096646,	 88.081450,	 21.951029,	 314.260590,	 98943.080563,	 355.405046,	 0.255414 
1.215000,	 0.186963,	 1.096634,	 88.288796,	 22.009051,	 314.195847,	 98921.618300,	 355.368435,	 0.256046 
1.245000,	 0.194387,	 1.096635,	 88.475718,	 22.061755,	 314.134417,	 98902.432301,	 355.333693,	 0.256617 
1.275000,	 0.201813,	 1.096650,	 88.642559,	 22.109268,	 314.076214,	 98885.462245,	 355.300774,	 0.257129 
1.305000,	 0.209237,	 1.096678,	 88.789528,	 22.151679,	 314.021164,	 98870.660669,	 355.269634,	 0.257582 
1.335000,	 0.216663,	 1.096719,	 88.916689,	 22.189044,	 313.969207,	 98857.992080,	 355.240242,	 0.257976 
1.365000,	 0.224087,	 1.096773,	 89.023964,	 22.221383,	 313.920301,	 98847.432464,	 355.212574,	 0.258311 
1.395000,	 0.231513,	 1.096839,	 89.111108,	 22.248678,	 313.874419,	 98838.969178,	 355.186614,	 0.258587 
1.425000,	 0.238938,	 1.096919,	 89.177697,	 22.270870,	 313.831553,	 98832.601228,	 355.162359,	 0.258802 
1.455000,	 0.246362,	 1.097011,	 89.223089,	 22.287854,	 313.791719,	 98828.339517,	 355.139818,	 0.258954 
1.485000,	 0.253787,	 1.097116,	 89.246406,	 22.299464,	 313.754954,	 98826.220023,	 355.119013,	 0.259040 
0.015000,	 0.030000,	 1.081824,	 88.084216,	 0.719623,	 313.467708,	 97359.595184,	 354.956418,	 0.248163 
0.045000,	 0.030000,	 1.104563,	 83.069356,	 0.434528,	 313.863867,	 99531.643464,	 355.180643,	 0.233882 
0.075000,	 0.030000,	 1.104006,	 82.984359,	 0.437432,	 313.838305,	 99473.357441,	 355.166180,	 0.233653 
0.105000,	 0.030000,	 1.104266,	 82.678542,	 0.510980,	 313.837134,	 99496.339772,	 355.165517,	 0.232793 
0.135000,	 0.030000,	 1.104494,	 82.326355,	 0.615214,	 313.847835,	 99520.346460,	 355.171572,	 0.231800 
0.165000,	 0.030000,	 1.104723,	 81.917214,	 0.739800,	 313.872837,	 99548.841400,	 355.185719,	 0.230641 
0.195000,	 0.030000,	 1.104954,	 81.449423,	 0.885493,	 313.914188,	 99582.844728,	 355.209115,	 0.229313 
0.225000,	 0.030000,	 1.104887,	 80.865029,	 0.756829,	 313.945738,	 99586.742014,	 355.226965,	 0.227653 
0.255000,	 0.030000,	 1.105336,	 80.102385,	 0.813479,	 313.995321,	 99642.977525,	 355.255015,	 0.225490 
0.285000,	 0.030000,	 1.105745,	 79.260064,	 0.917147,	 314.056028,	 99699.164998,	 355.289355,	 0.223101 
0.315000,	 0.030000,	 1.106152,	 78.313728,	 1.045711,	 314.130350,	 99759.413750,	 355.331393,	 0.220416 
0.345000,	 0.030000,	 1.106563,	 77.245895,	 1.195787,	 314.219973,	 99824.959968,	 355.382078,	 0.217386 
0.375000,	 0.030000,	 1.106981,	 76.039213,	 1.368525,	 314.326448,	 99896.506799,	 355.442284,	 0.213963 
0.405000,	 0.030000,	 1.107405,	 74.675100,	 1.566482,	 314.451308,	 99974.454085,	 355.512874,	 0.210095 
0.435000,	 0.030000,	 1.107835,	 73.133472,	 1.793203,	 314.596060,	 100059.292900,	 355.594691,	 0.205727 
0.465000,	 0.030000,	 1.108146,	 71.374232,	 2.049013,	 314.762262,	 100140.266174,	 355.688610,	 0.200748 
0.495000,	 0.031213,	 1.113243,	 70.015201,	 5.788533,	 314.818365,	 100618.846667,	 355.720307,	 0.197498 
0.525000,	 0.036062,	 1.121030,	 70.851283,	 13.815228,	 314.616029,	 101257.555064,	 355.605977,	 0.202993 
0.555000,	 0.043338,	 1.115559,	 73.769911,	 16.157269,	 314.309371,	 100665.105036,	 355.432629,	 0.212469 
0.585000,	 0.050613,	 1.112947,	 75.690082,	 17.289775,	 314.098019,	 100361.929962,	 355.313106,	 0.218511 
0.615000,	 0.057887,	 1.111183,	 77.179468,	 18.004594,	 313.930741,	 100149.471424,	 355.218480,	 0.223107 
0.645000,	 0.065162,	 1.109876,	 78.402227,	 18.526127,	 313.791106,	 99987.198344,	 355.139471,	 0.226844 
0.675000,	 0.072437,	 1.108839,	 79.444855,	 18.937987,	 313.670587,	 99855.429214,	 355.071265,	 0.230013 
0.705000,	 0.079712,	 1.107980,	 80.355942,	 19.279102,	 313.564362,	 99744.258015,	 355.011137,	 0.232771 
0.735000,	 0.086987,	 1.107247,	 81.165637,	 19.570569,	 313.469394,	 99648.041406,	 354.957373,	 0.235216 
0.765000,	 0.094262,	 1.106608,	 81.894015,	 19.825059,	 313.383596,	 99563.277479,	 354.908793,	 0.237412 
0.795000,	 0.101538,	 1.106043,	 82.555178,	 20.050779,	 313.305431,	 99487.641160,	 354.864529,	 0.239402 
0.825000,	 0.108812,	 1.105538,	 83.159426,	 20.253380,	 313.233772,	 99419.500017,	 354.823944,	 0.241219 
0.855000,	 0.116087,	 1.105083,	 83.714495,	 20.436903,	 313.167818,	 99357.671438,	 354.786587,	 0.242887 
0.885000,	 0.123363,	 1.104671,	 84.226329,	 20.604316,	 313.106982,	 99301.276375,	 354.752124,	 0.244424 
0.915000,	 0.130637,	 1.104295,	 84.699594,	 20.757861,	 313.050798,	 99249.644303,	 354.720295,	 0.245845 
0.945000,	 0.137912,	 1.103950,	 85.138010,	 20.899269,	 312.998884,	 99202.252483,	 354.690882,	 0.247161 
0.975000,	 0.145187,	 1.103635,	 85.544583,	 21.029902,	 312.950918,	 99158.686175,	 354.663703,	 0.248381 
1.005000,	 0.152463,	 1.103345,	 85.921769,	 21.150852,	 312.906626,	 99118.611633,	 354.638604,	 0.249513 
1.035000,	 0.159738,	 1.103079,	 86.271584,	 21.263001,	 312.865769,	 99081.757213,	 354.615451,	 0.250562 
1.065000,	 0.167013,	 1.102834,	 86.595696,	 21.367072,	 312.828146,	 99047.899809,	 354.594128,	 0.251535 
1.095000,	 0.174288,	 1.102610,	 86.895484,	 21.463659,	 312.793578,	 99016.854923,	 354.574536,	 0.252435 
1.125000,	 0.181562,	 1.102406,	 87.172085,	 21.553259,	 312.761915,	 98988.469286,	 354.556589,	 0.253266 
1.155000,	 0.188837,	 1.102220,	 87.426430,	 21.636280,	 312.733022,	 98962.615310,	 354.540212,	 0.254030 
1.185000,	 0.196112,	 1.102051,	 87.659273,	 21.713067,	 312.706784,	 98939.186885,	 354.525339,	 0.254730 
1.215000,	 0.203387,	 1.101900,	 87.871204,	 21.783904,	 312.683104,	 98918.096197,	 354.511915,	 0.255368 
1.245000,	 0.210663,	 1.101765,	 88.062663,	 21.849026,	 312.661899,	 98899.271348,	 354.499894,	 0.255945 
1.275000,	 0.217938,	 1.101646,	 88.233950,	 21.908624,	 312.643099,	 98882.654599,	 354.489236,	 0.256463 
1.305000,	 0.225213,	 1.101543,	 88.385220,	 21.962852,	 312.626651,	 98868.201155,	 354.479911,	 0.256920 
1.335000,	 0.232488,	 1.101455,	 88.516481,	 22.011825,	 312.612516,	 98855.878409,	 354.471897,	 0.257319 
1.365000,	 0.239762,	 1.101383,	 88.627585,	 22.055627,	 312.600673,	 98845.665618,	 354.465183,	 0.257658 
1.395000,	 0.247037,	 1.101327,	 88.718205,	 22.094306,	 312.591119,	 98837.553990,	 354.459766,	 0.257936 
1.425000,	 0.254312,	 1.101285,	 88.787810,	 22.127875,	 312.583871,	 98831.547223,	 354.455657,	 0.258153 
1.455000,	 0.261588,	 1.101259,	 88.835629,	 22.156312,	 312.578973,	 98827.662049,	 354.452880,	 0.258305 
1.485000,	 0.268863,	 1.101249,	 88.860616,	 22.179530,	 312.576495,	 98825.945779,	 354.451475,	 0.258390 
0.015000,	 0.050000,	 1.085703,	 87.803836,	 0.646440,	 312.157891,	 97300.418877,	 354.214054,	 0.247890 
0.045000,	 0.050000,	 1.109127,	 82.704167,	 0.524997,	 312.587861,	 99536.545466,	 354.457919,	 0.233330 
0.075000,	 0.050000,	 1.108345,	 82.674326,	 0.574956,	 312.588509,	 99466.597640,	 354.458286,	 0.233247 
0.105000,	 0.050000,	 1.108484,	 82.401297,	 0.683429,	 312.611439,	 99486.349198,	 354.471287,	 0.232471 
0.135000,	 0.050000,	 1.108625,	 82.079810,	 0.822179,	 312.641071,	 99508.421057,	 354.488087,	 0.231556 
0.165000,	 0.050000,	 1.108792,	 81.703765,	 0.982395,	 312.678192,	 99535.244870,	 354.509130,	 0.230487 
0.195000,	 0.050000,	 1.108989,	 81.273616,	 1.164942,	 312.723125,	 99567.268958,	 354.534602,	 0.229264 
0.225000,	 0.050000,	 1.108937,	 80.748770,	 1.155913,	 312.773292,	 99578.507696,	 354.563038,	 0.227765 
0.255000,	 0.050000,	 1.109241,	 80.079738,	 1.266018,	 312.836384,	 99625.966013,	 354.598797,	 0.225860 
0.285000,	 0.050000,	 1.109561,	 79.332865,	 1.427404,	 312.907708,	 99677.414122,	 354.639217,	 0.223736 
0.315000,	 0.050000,	 1.109895,	 78.498226,	 1.622700,	 312.988378,	 99733.130240,	 354.684929,	 0.221365 
0.345000,	 0.050000,	 1.110245,	 77.564809,	 1.848760,	 313.079513,	 99793.560106,	 354.736563,	 0.218717 
0.375000,	 0.050000,	 1.110609,	 76.521015,	 2.107268,	 313.182283,	 99859.076217,	 354.794780,	 0.215759 
0.405000,	 0.050000,	 1.110986,	 75.354530,	 2.401715,	 313.297950,	 99929.859811,	 354.860292,	 0.212458 
0.435000,	 0.050000,	 1.111373,	 74.052373,	 2.736881,	 313.427881,	 100006.155999,	 354.933869,	 0.208780 
0.465000,	 0.050000,	 1.111671,	 72.587073,	 3.111491,	 313.574053,	 100079.602178,	 355.016623,	 0.204649 
0.495000,	 0.051187,	 1.115590,	 71.424746,	 6.096699,	 313.640527,	 100453.677399,	 355.054251,	 0.201897 
0.525000,	 0.055938,	 1.121773,	 71.959928,	 12.486963,	 313.515587,	 100970.245184,	 354.983525,	 0.205743 
0.555000,	 0.063063,	 1.118079,	 74.238206,	 15.017182,	 313.294557,	 100566.818299,	 354.858371,	 0.213442 
0.585000,	 0.070187,	 1.115795,	 75.948748,	 16.371572,	 313.130424,	 100308.781747,	 354.765405,	 0.218999 
0.615000,	 0.077313,	 1.114100,	 77.335291,	 17.240593,	 312.998663,	 100114.220781,	 354.690756,	 0.223388 
0.645000,	 0.084438,	 1.112784,	 78.497338,	 17.870132,	 312.888735,	 99960.851548,	 354.628465,	 0.227014 
0.675000,	 0.091563,	 1.111711,	 79.499507,	 18.361625,	 312.794297,	 99834.364417,	 354.574943,	 0.230113 
0.705000,	 0.098688,	 1.110806,	 80.381530,	 18.764280,	 312.711556,	 99726.707469,	 354.528044,	 0.232824 
0.735000,	 0.105813,	 1.110023,	 81.169279,	 19.105122,	 312.638099,	 99633.016611,	 354.486401,	 0.235234 
0.765000,	 0.112937,	 1.109334,	 81.880495,	 19.400400,	 312.572313,	 99550.169810,	 354.449104,	 0.237403 
0.795000,	 0.120063,	 1.108718,	 82.527880,	 19.660611,	 312.513058,	 99476.047964,	 354.415505,	 0.239373 
0.825000,	 0.127188,	 1.108162,	 83.120825,	 19.892960,	 312.459502,	 99409.141641,	 354.385136,	 0.241173 
0.855000,	 0.134313,	 1.107657,	 83.666442,	 20.102566,	 312.411005,	 99348.348104,	 354.357632,	 0.242827 
0.885000,	 0.141438,	 1.107193,	 84.170243,	 20.293168,	 312.367035,	 99292.840350,	 354.332695,	 0.244352 
0.915000,	 0.148563,	 1.106768,	 84.636581,	 20.467571,	 312.327153,	 99241.982631,	 354.310074,	 0.245763 
0.945000,	 0.155688,	 1.106375,	 85.068950,	 20.627933,	 312.290991,	 99195.276485,	 354.289562,	 0.247070 
0.975000,	 0.162812,	 1.106012,	 85.470183,	 20.775948,	 312.258248,	 99152.324780,	 354.270988,	 0.248282 
1.005000,	 0.169938,	 1.105676,	 85.842603,	 20.912964,	 312.228668,	 99112.806923,	 354.254208,	 0.249406 
1.035000,	 0.177063,	 1.105365,	 86.188125,	 21.040072,	 312.202040,	 99076.461316,	 354.239101,	 0.250450 
1.065000,	 0.184188,	 1.105076,	 86.508334,	 21.158163,	 312.178186,	 99043.072659,	 354.225568,	 0.251417 
1.095000,	 0.191313,	 1.104810,	 86.804543,	 21.267973,	 312.156952,	 99012.462613,	 354.213521,	 0.252311 
1.125000,	 0.198438,	 1.104564,	 87.077838,	 21.370113,	 312.138213,	 98984.482814,	 354.202889,	 0.253137 
1.155000,	 0.205563,	 1.104338,	 87.329108,	 21.465097,	 312.121857,	 98959.009610,	 354.193609,	 0.253896 
1.185000,	 0.212688,	 1.104130,	 87.559072,	 21.553356,	 312.107794,	 98935.940055,	 354.185630,	 0.254592 
1.215000,	 0.219813,	 1.103940,	 87.768294,	 21.635256,	 312.095947,	 98915.188861,	 354.178907,	 0.255226 
1.245000,	 0.226938,	 1.103768,	 87.957198,	 21.711106,	 312.086253,	 98896.686098,	 354.173406,	 0.255799 
1.275000,	 0.234063,	 1.103613,	 88.126070,	 21.781172,	 312.078661,	 98880.375487,	 354.169099,	 0.256312 
1.305000,	 0.241188,	 1.103474,	 88.275064,	 21.845678,	 312.073136,	 98866.213185,	 354.165964,	 0.256767 
1.335000,	 0.248312,	 1.103352,	 88.404197,	 21.904819,	 312.069655,	 98854.166991,	 354.163988,	 0.257162 
1.365000,	 0.255437,	 1.103246,	 88.513343,	 21.958760,	 312.068209,	 98844.215929,	 354.163168,	 0.257499 
1.395000,	 0.262562,	 1.103156,	 88.602217,	 22.007646,	 312.068805,	 98836.350187,	 354.163506,	 0.257775 
1.425000,	 0.269687,	 1.103083,	 88.670356,	 22.051602,	 312.071470,	 98830.571423,	 354.165018,	 0.257991 
1.455000,	 0.276812,	 1.103025,	 88.717092,	 22.090741,	 312.076250,	 98826.892938,	 354.167730,	 0.258143 
1.485000,	 0.283937,	 1.102983,	 88.741539,	 22.125143,	 312.083213,	 98825.358585,	 354.171681,	 0.258231 
0.015000,	 0.070000,	 1.086334,	 87.681978,	 0.549145,	 311.870733,	 97267.408716,	 354.051093,	 0.247658 
0.045000,	 0.070000,	 1.110080,	 82.549691,	 0.584933,	 312.310361,	 99533.606626,	 354.300549,	 0.232999 
0.075000,	 0.070000,	 1.109214,	 82.558792,	 0.690432,	 312.315164,	 99457.488940,	 354.303274,	 0.233025 
0.105000,	 0.070000,	 1.109311,	 82.315551,	 0.836404,	 312.341236,	 99474.504120,	 354.318062,	 0.232333 
0.135000,	 0.070000,	 1.109426,	 82.023432,	 1.009089,	 312.371937,	 99494.608401,	 354.335475,	 0.231503 
0.165000,	 0.070000,	 1.109578,	 81.679217,	 1.202905,	 312.407572,	 99519.634638,	 354.355685,	 0.230526 
0.195000,	 0.070000,	 1.109769,	 81.284778,	 1.419276,	 312.448046,	 99549.581097,	 354.378639,	 0.229408 
0.225000,	 0.070000,	 1.109779,	 80.811743,	 1.503618,	 312.494824,	 99565.466270,	 354.405166,	 0.228060 
0.255000,	 0.070000,	 1.110037,	 80.221574,	 1.665310,	 312.551241,	 99606.539601,	 354.437156,	 0.226384 
0.285000,	 0.070000,	 1.110336,	 79.558636,	 1.876979,	 312.613860,	 99653.384371,	 354.472660,	 0.224505 
0.315000,	 0.070000,	 1.110662,	 78.821133,	 2.127444,	 312.682906,	 99704.613762,	 354.511803,	 0.222418 
0.345000,	 0.070000,	 1.111010,	 78.003080,	 2.414601,	 312.758926,	 99760.090337,	 354.554895,	 0.220108 
0.375000,	 0.070000,	 1.111379,	 77.097402,	 2.740564,	 312.842571,	 99819.894361,	 354.602304,	 0.217557 
0.405000,	 0.070000,	 1.111766,	 76.096585,	 3.109315,	 312.934576,	 99884.018564,	 354.654443,	 0.214744 
0.435000,	 0.070000,	 1.112168,	 74.992985,	 3.526214,	 313.035750,	 99952.509135,	 354.711769,	 0.211653 
0.465000,	 0.070000,	 1.112508,	 73.768390,	 3.989137,	 313.147644,	 100018.740803,	 354.775159,	 0.208234 
0.495000,	 0.071163,	 1.115549,	 72.776542,	 6.420817,	 313.212051,	 100312.780718,	 354.811642,	 0.205910 
0.525000,	 0.075813,	 1.120459,	 73.101957,	 11.552211,	 313.135482,	 100729.718877,	 354.768270,	 0.208613 
0.555000,	 0.082787,	 1.118055,	 74.876328,	 14.092044,	 312.968921,	 100460.099031,	 354.673904,	 0.214820 
0.585000,	 0.089763,	 1.116163,	 76.374837,	 15.578182,	 312.832955,	 100246.509794,	 354.596854,	 0.219820 
0.615000,	 0.096738,	 1.114626,	 77.647389,	 16.562087,	 312.719948,	 100072.309767,	 354.532801,	 0.223940 
0.645000,	 0.103712,	 1.113378,	 78.739717,	 17.280215,	 312.624198,	 99929.685346,	 354.478520,	 0.227415 
0.675000,	 0.110688,	 1.112336,	 79.694679,	 17.840391,	 312.541304,	 99809.687121,	 354.431521,	 0.230417 
0.705000,	 0.117663,	 1.111444,	 80.542413,	 18.297723,	 312.468348,	 99706.351272,	 354.390152,	 0.233062 
0.735000,	 0.124637,	 1.110665,	 81.303983,	 18.683277,	 312.403364,	 99615.748916,	 354.353299,	 0.235423 
0.765000,	 0.131613,	 1.109975,	 81.994457,	 19.015980,	 312.344998,	 99535.227815,	 354.320196,	 0.237555 
0.795000,	 0.138588,	 1.109355,	 82.624925,	 19.308142,	 312.292295,	 99462.925394,	 354.290301,	 0.239496 
0.825000,	 0.145562,	 1.108795,	 83.203730,	 19.568248,	 312.244541,	 99397.487518,	 354.263212,	 0.241272 
0.855000,	 0.152537,	 1.108285,	 83.737280,	 19.802326,	 312.201165,	 99337.911832,	 354.238605,	 0.242907 
0.885000,	 0.159513,	 1.107817,	 84.230605,	 20.014773,	 312.161704,	 99283.436259,	 354.216217,	 0.244415 
0.915000,	 0.166488,	 1.107387,	 84.687716,	 20.208889,	 312.125785,	 99233.469015,	 354.195837,	 0.245812 
0.945000,	 0.173463,	 1.106990,	 85.111853,	 20.387211,	 312.093105,	 99187.542640,	 354.177295,	 0.247107 
0.975000,	 0.180438,	 1.106624,	 85.505661,	 20.551728,	 312.063419,	 99145.282533,	 354.160450,	 0.248308 
1.005000,	 0.187413,	 1.106285,	 85.871318,	 20.704023,	 312.036525,	 99106.384864,	 354.145189,	 0.249423 
1.035000,	 0.194387,	 1.105971,	 86.210625,	 20.845376,	 312.012256,	 99070.600748,	 354.131416,	 0.250458 
1.065000,	 0.201362,	 1.105682,	 86.525080,	 20.976834,	 311.990471,	 99037.724680,	 354.119053,	 0.251417 
1.095000,	 0.208338,	 1.105414,	 86.815924,	 21.099262,	 311.971054,	 99007.585959,	 354.108033,	 0.252305 
1.125000,	 0.215313,	 1.105167,	 87.084189,	 21.213381,	 311.953907,	 98980.042227,	 354.098302,	 0.253124 
1.155000,	 0.222288,	 1.104940,	 87.330720,	 21.319800,	 311.938947,	 98954.974572,	 354.089811,	 0.253877 
1.185000,	 0.229262,	 1.104732,	 87.556202,	 21.419035,	 311.926106,	 98932.283769,	 354.082523,	 0.254568 
1.215000,	 0.236238,	 1.104543,	 87.761177,	 21.511528,	 311.915327,	 98911.887408,	 354.076405,	 0.255197 
1.245000,	 0.243212,	 1.104371,	 87.946051,	 21.597659,	 311.906564,	 98893.717701,	 354.071431,	 0.255765 
1.275000,	 0.250188,	 1.104216,	 88.111107,	 21.677764,	 311.899783,	 98877.719822,	 354.067583,	 0.256275 
1.305000,	 0.257162,	 1.104078,	 88.256506,	 21.752135,	 311.894960,	 98863.850695,	 354.064845,	 0.256726 
1.335000,	 0.264137,	 1.103957,	 88.382285,	 21.821039,	 311.892081,	 98852.078153,	 354.063211,	 0.257118 
1.365000,	 0.271112,	 1.103852,	 88.488357,	 21.884720,	 311.891144,	 98842.380405,	 354.062679,	 0.257453 
1.395000,	 0.278087,	 1.103763,	 88.574500,	 21.943409,	 311.892159,	 98834.745795,	 354.063255,	 0.257728 
1.425000,	 0.285062,	 1.103691,	 88.640348,	 21.997334,	 311.895150,	 98829.172828,	 354.064953,	 0.257944 
1.455000,	 0.292038,	 1.103634,	 88.685371,	 22.046729,	 311.900156,	 98825.669924,	 354.067794,	 0.258099 
1.485000,	 0.299012,	 1.103593,	 88.708889,	 22.091817,	 311.907230,	 98824.275465,	 354.071809,	 0.258192 
0.015000,	 0.090000,	 1.086241,	 87.620429,	 0.477441,	 311.816199,	 97242.076392,	 354.020137,	 0.247505 
0.045000,	 0.090000,	 1.110159,	 82.472757,	 0.627675,	 312.257860,	 99523.971155,	 354.270768,	 0.232803 
0.075000,	 0.090000,	 1.109273,	 82.507868,	 0.788053,	 312.261324,	 99445.621975,	 354.272733,	 0.232904 
0.105000,	 0.090000,	 1.109354,	 82.290713,	 0.971796,	 312.285549,	 99460.625766,	 354.286475,	 0.232288 
0.135000,	 0.090000,	 1.109458,	 82.026005,	 1.177199,	 312.313735,	 99478.946866,	 354.302463,	 0.231538 
0.165000,	 0.090000,	 1.109603,	 81.712028,	 1.402350,	 312.346012,	 99502.226637,	 354.320771,	 0.230650 
0.195000,	 0.090000,	 1.109786,	 81.351663,	 1.649512,	 312.382123,	 99530.157022,	 354.341252,	 0.229633 
0.225000,	 0.090000,	 1.109847,	 80.925377,	 1.807392,	 312.423632,	 99548.821224,	 354.364794,	 0.228424 
0.255000,	 0.090000,	 1.110077,	 80.403651,	 2.016573,	 312.472702,	 99585.139986,	 354.392621,	 0.226949 
0.285000,	 0.090000,	 1.110359,	 79.815965,	 2.271972,	 312.526906,	 99627.718000,	 354.423357,	 0.225291 
0.315000,	 0.090000,	 1.110672,	 79.164816,	 2.568128,	 312.585999,	 99674.655021,	 354.456863,	 0.223459 
0.345000,	 0.090000,	 1.111011,	 78.447921,	 2.904323,	 312.650115,	 99725.444336,	 354.493213,	 0.221448 
0.375000,	 0.090000,	 1.111371,	 77.661669,	 3.283062,	 312.719495,	 99779.934954,	 354.532544,	 0.219249 
0.405000,	 0.090000,	 1.111751,	 76.802146,	 3.708546,	 312.794423,	 99837.967618,	 354.575015,	 0.216856 
0.435000,	 0.090000,	 1.112148,	 75.865620,	 4.186295,	 312.875200,	 99899.435585,	 354.620795,	 0.214260 
0.465000,	 0.090000,	 1.112500,	 74.840573,	 4.713908,	 312.962762,	 99959.009723,	 354.670414,	 0.211433 
0.495000,	 0.091138,	 1.114885,	 73.996951,	 6.733876,	 313.020068,	 100191.678137,	 354.702884,	 0.209479 
0.525000,	 0.095687,	 1.118804,	 74.179688,	 10.891147,	 312.970929,	 100528.033725,	 354.675042,	 0.211391 
0.555000,	 0.102513,	 1.117304,	 75.560581,	 13.335820,	 312.841028,	 100351.595105,	 354.601429,	 0.216379 
0.585000,	 0.109338,	 1.115793,	 76.857255,	 14.884157,	 312.724421,	 100178.498246,	 354.535337,	 0.220811 
0.615000,	 0.116162,	 1.114447,	 78.011887,	 15.947388,	 312.623312,	 100025.290227,	 354.478018,	 0.224627 
0.645000,	 0.122987,	 1.113301,	 79.029226,	 16.735116,	 312.535706,	 99894.471042,	 354.428347,	 0.227921 
0.675000,	 0.129812,	 1.112319,	 79.932516,	 17.352927,	 312.458889,	 99781.810706,	 354.384788,	 0.230807 
0.705000,	 0.136637,	 1.111464,	 80.742412,	 17.857972,	 312.390737,	 99683.418105,	 354.346137,	 0.233370 
0.735000,	 0.143462,	 1.110711,	 81.474980,	 18.283561,	 312.329691,	 99596.359910,	 354.311513,	 0.235672 
0.765000,	 0.150288,	 1.110038,	 82.142438,	 18.650385,	 312.274613,	 99518.504522,	 354.280271,	 0.237758 
0.795000,	 0.157112,	 1.109432,	 82.754126,	 18.972083,	 312.224665,	 99448.279160,	 354.251937,	 0.239663 
0.825000,	 0.163938,	 1.108882,	 83.317241,	 19.258133,	 312.179210,	 99384.509879,	 354.226149,	 0.241411 
0.855000,	 0.170763,	 1.108380,	 83.837425,	 19.515282,	 312.137740,	 99326.309986,	 354.202621,	 0.243021 
0.885000,	 0.177587,	 1.107920,	 84.319178,	 19.748468,	 312.099851,	 99272.992909,	 354.181122,	 0.244510 
0.915000,	 0.184412,	 1.107496,	 84.766133,	 19.961412,	 312.065219,	 99224.018512,	 354.161471,	 0.245890 
0.945000,	 0.191238,	 1.107105,	 85.181250,	 20.156975,	 312.033581,	 99178.955852,	 354.143518,	 0.247170 
0.975000,	 0.198063,	 1.106745,	 85.566962,	 20.337403,	 312.004726,	 99137.456851,	 354.127143,	 0.248359 
1.005000,	 0.204888,	 1.106411,	 85.925286,	 20.504488,	 311.978477,	 99099.237378,	 354.112246,	 0.249463 
1.035000,	 0.211712,	 1.106103,	 86.257896,	 20.659679,	 311.954688,	 99064.063445,	 354.098745,	 0.250488 
1.065000,	 0.218537,	 1.105818,	 86.566190,	 20.804161,	 311.933237,	 99031.740990,	 354.086570,	 0.251439 
1.095000,	 0.225362,	 1.105555,	 86.851334,	 20.938918,	 311.914023,	 99002.108194,	 354.075665,	 0.252318 
1.125000,	 0.232187,	 1.105313,	 87.114294,	 21.064772,	 311.896959,	 98975.029654,	 354.065979,	 0.253131 
1.155000,	 0.239013,	 1.105091,	 87.355869,	 21.182418,	 311.881973,	 98950.391910,	 354.057473,	 0.253878 
1.185000,	 0.245837,	 1.104888,	 87.576704,	 21.292450,	 311.869005,	 98928.099997,	 354.050113,	 0.254563 
1.215000,	 0.252663,	 1.104703,	 87.777314,	 21.395381,	 311.858006,	 98908.074774,	 354.043869,	 0.255186 
1.245000,	 0.259487,	 1.104536,	 87.958089,	 21.491656,	 311.848935,	 98890.250869,	 354.038720,	 0.255751 
1.275000,	 0.266312,	 1.104387,	 88.119305,	 21.581672,	 311.841762,	 98874.575097,	 354.034648,	 0.256256 
1.305000,	 0.273137,	 1.104254,	 88.261125,	 21.665787,	 311.836464,	 98861.005271,	 354.031641,	 0.256704 
1.335000,	 0.279963,	 1.104138,	 88.383606,	 21.744329,	 311.833030,	 98849.509332,	 354.029692,	 0.257095 
1.365000,	 0.286788,	 1.104038,	 88.486694,	 21.817609,	 311.831457,	 98840.064745,	 354.028798,	 0.257427 
1.395000,	 0.293612,	 1.103954,	 88.570221,	 21.885931,	 311.831750,	 98832.658113,	 354.028965,	 0.257703 
1.425000,	 0.300438,	 1.103886,	 88.633905,	 21.949606,	 311.833927,	 98827.284992,	 354.030201,	 0.257920 
1.455000,	 0.307262,	 1.103834,	 88.677336,	 22.008962,	 311.838015,	 98823.949313,	 354.032521,	 0.258077 
1.485000,	 0.314087,	 1.103799,	 88.700003,	 22.064326,	 311.844054,	 98822.684775,	 354.035949,	 0.258175 
0.015000,	 0.110000,	 1.086057,	 87.587877,	 0.431673,	 311.795308,	 97219.047881,	 354.008278,	 0.247421 
0.045000,	 0.110000,	 1.110069,	 82.432453,	 0.660419,	 312.237672,	 99509.489587,	 354.259316,	 0.232697 
0.075000,	 0.110000,	 1.109187,	 82.485271,	 0.870883,	 312.239858,	 99431.108354,	 354.260556,	 0.232851 
0.105000,	 0.110000,	 1.109260,	 82.290871,	 1.091067,	 312.262279,	 99444.771619,	 354.273274,	 0.232301 
0.135000,	 0.110000,	 1.109354,	 82.051625,	 1.327550,	 312.288326,	 99461.556097,	 354.288050,	 0.231626 
0.165000,	 0.110000,	 1.109490,	 81.766250,	 1.581757,	 312.318084,	 99483.195463,	 354.304929,	 0.230822 
0.195000,	 0.110000,	 1.109662,	 81.438237,	 1.856884,	 312.351224,	 99509.205816,	 354.323727,	 0.229901 
0.225000,	 0.110000,	 1.109753,	 81.054450,	 2.073237,	 312.388876,	 99529.351155,	 354.345082,	 0.228819 
0.255000,	 0.110000,	 1.109962,	 80.592622,	 2.324908,	 312.432619,	 99562.007485,	 354.369890,	 0.227520 
0.285000,	 0.110000,	 1.110222,	 80.072258,	 2.618226,	 312.480779,	 99600.721300,	 354.397201,	 0.226060 
0.315000,	 0.110000,	 1.110515,	 79.497894,	 2.952285,	 312.532905,	 99643.633717,	 354.426759,	 0.224455 
0.345000,	 0.110000,	 1.110834,	 78.869847,	 3.327787,	 312.588879,	 99690.042292,	 354.458496,	 0.222706 
0.375000,	 0.110000,	 1.111174,	 78.187104,	 3.747602,	 312.648679,	 99739.628689,	 354.492399,	 0.220814 
0.405000,	 0.110000,	 1.111532,	 77.448430,	 4.215987,	 312.712299,	 99792.116792,	 354.528465,	 0.218778 
0.435000,	 0.110000,	 1.111907,	 76.652938,	 4.738373,	 312.779709,	 99847.284570,	 354.566675,	 0.216600 
0.465000,	 0.110000,	 1.112248,	 75.793962,	 5.312454,	 312.851372,	 99900.794193,	 354.607291,	 0.214265 
0.495000,	 0.111113,	 1.114135,	 75.078693,	 7.023587,	 312.901199,	 100086.178995,	 354.635529,	 0.212631 
0.525000,	 0.115562,	 1.117274,	 75.166883,	 10.425557,	 312.868343,	 100357.643373,	 354.616909,	 0.213996 
0.555000,	 0.122237,	 1.116391,	 76.242384,	 12.718638,	 312.765165,	 100245.237480,	 354.558432,	 0.218006 
0.585000,	 0.128912,	 1.115215,	 77.354543,	 14.277577,	 312.664111,	 100107.307328,	 354.501148,	 0.221892 
0.615000,	 0.135587,	 1.114061,	 78.392776,	 15.389457,	 312.572580,	 99974.494574,	 354.449255,	 0.225389 
0.645000,	 0.142263,	 1.113029,	 79.333017,	 16.229011,	 312.491277,	 99855.908069,	 354.403154,	 0.228485 
0.675000,	 0.148938,	 1.112119,	 80.182078,	 16.893655,	 312.418913,	 99751.118705,	 354.362117,	 0.231239 
0.705000,	 0.155612,	 1.111313,	 80.951852,	 17.439459,	 312.354091,	 99658.125601,	 354.325353,	 0.233709 
0.735000,	 0.162287,	 1.110593,	 81.653519,	 17.900362,	 312.295645,	 99574.974266,	 354.292202,	 0.235942 
0.765000,	 0.168963,	 1.109946,	 82.296410,	 18.297964,	 312.242654,	 99500.068961,	 354.262142,	 0.237977 
0.795000,	 0.175638,	 1.109360,	 82.888052,	 18.646762,	 312.194402,	 99432.143864,	 354.234768,	 0.239840 