TITLE = "Final State"
VARIABLES = "X", "Y", "rho", "u", "v", "T", "p", "c", "M"
ZONE I=50, J=50, DATAPACKING=POINT
0.015000,	 0.010000,	 1.000000,	 1000.000000,	 0.000000,	 300.000000,	 86129.212707,	 347.247603,	 2.879789 
0.045000,	 0.010000,	 1.000000,	 1000.000000,	 0.000000,	 300.000000,	 86129.212707,	 347.247603,	 2.879789 
0.075000,	 0.010000,	 1.000000,	 1000.000000,	 0.000000,	 300.000000,	 86129.212707,	 347.247603,	 2.879789 
0.105000,	 0.010000,	 1.000000,	 1000.000000,	 0.000000,	 300.000000,	 86129.212707,	 347.247603,	 2.879789 
0.135000,	 0.010000,	 1.000000,	 1000.000000,	 0.000000,	 300.000000,	 86129.212707,	 347.247603,	 2.879789 
0.165000,	 0.010000,	 1.000000,	 1000.000000,	 0.000000,	 300.000000,	 86129.212707,	 347.247603,	 2.879789 
0.195000,	 0.010000,	 1.000000,	 1000.000000,	 0.000000,	 300.000000,	 86129.212707,	 347.247603,	 2.879789 
0.225000,	 0.010000,	 1.000000,	 1000.000000,	 0.000000,	 300.000000,	 86129.212707,	 347.247603,	 2.879789 
0.255000,	 0.010000,	 1.000000,	 1000.000000,	 0.000000,	 300.000000,	 86129.212707,	 347.247603,	 2.879789 
0.285000,	 0.010000,	 1.000000,	 1000.000000,	 0.000000,	 300.000000,	 86129.212707,	 347.247603,	 2.879789 
0.315000,	 0.010000,	 1.000000,	 1000.000000,	 0.000000,	 300.000000,	 86129.212707,	 347.247603,	 2.879789 
0.345000,	 0.010000,	 1.000000,	 1000.000000,	 0.000000,	 300.000000,	 86129.212707,	 347.247603,	 2.879789 
0.375000,	 0.010000,	 1.000000,	 1000.000000,	 0.000000,	 300.000000,	 86129.212707,	 347.247603,	 2.879789 
0.405000,	 0.010000,	 1.000000,	 1000.000000,	 0.000000,	 300.000000,	 86129.212707,	 347.247603,	 2.879789 
0.435000,	 0.010000,	 1.000000,	 1000.000000,	 0.000000,	 300.000000,	 86129.212707,	 347.247603,	 2.879789 
0.465000,	 0.010000,	 1.000000,	 1000.000000,	 0.000000,	 300.000000,	 86129.212707,	 347.247603,	 2.879789 
0.495000,	 0.011238,	 1.000000,	 1000.000000,	 0.000000,	 300.000000,	 86129.212707,	 347.247603,	 2.879789 
0.525000,	 0.016188,	 1.000384,	 1000.283664,	 0.335199,	 431.344982,	 123885.619455,	 416.381096,	 2.402327 
0.555000,	 0.023613,	 1.000388,	 1000.298939,	 0.344054,	 481.750750,	 138363.015582,	 440.037642,	 2.273212 
0.585000,	 0.031037,	 1.000391,	 1000.303710,	 0.347500,	 492.458857,	 141438.904123,	 444.901229,	 2.248373 
0.615000,	 0.038462,	 1.000394,	 1000.306217,	 0.350525,	 494.769206,	 142102.889053,	 445.943625,	 2.243123 
0.645000,	 0.045888,	 1.000397,	 1000.308537,	 0.353586,	 496.300314,	 142543.077949,	 446.633099,	 2.239665 
0.675000,	 0.053312,	 1.000400,	 1000.310885,	 0.356701,	 497.826745,	 142981.932861,	 447.319408,	 2.236234 
0.705000,	 0.060737,	 1.000403,	 1000.313269,	 0.359869,	 499.377107,	 143427.671228,	 448.015401,	 2.232766 
0.735000,	 0.068162,	 1.000406,	 1000.315690,	 0.363093,	 500.951968,	 143880.456346,	 448.721287,	 2.229259 
0.765000,	 0.075588,	 1.000410,	 1000.318150,	 0.366375,	 502.551914,	 144340.456717,	 449.437282,	 2.225713 
0.795000,	 0.083013,	 1.000413,	 1000.320648,	 0.369715,	 504.177550,	 144807.846258,	 450.163606,	 2.222127 
0.825000,	 0.090438,	 1.000416,	 1000.323180,	 0.373116,	 505.828244,	 145282.443287,	 450.899929,	 2.218504 
0.855000,	 0.097863,	 1.000420,	 1000.325752,	 0.376578,	 507.505687,	 145764.734174,	 451.646954,	 2.214840 
0.885000,	 0.105288,	 1.000423,	 1000.328366,	 0.380105,	 509.210679,	 146254.949513,	 452.404984,	 2.211135 
0.915000,	 0.112712,	 1.000427,	 1000.331022,	 0.383696,	 510.943905,	 146753.286125,	 453.174266,	 2.207387 
0.945000,	 0.120138,	 1.000431,	 1000.333722,	 0.387355,	 512.706070,	 147259.947401,	 453.955057,	 2.203597 
0.975000,	 0.127562,	 1.000434,	 1000.336467,	 0.391083,	 514.497906,	 147775.143576,	 454.747620,	 2.199762 
1.005000,	 0.134988,	 1.000438,	 1000.339258,	 0.394882,	 516.320169,	 148299.092020,	 455.552227,	 2.195883 
1.035000,	 0.142412,	 1.000442,	 1000.342096,	 0.398754,	 518.173638,	 148832.017545,	 456.369158,	 2.191958 
1.065000,	 0.149838,	 1.000446,	 1000.344982,	 0.402701,	 520.059123,	 149374.152723,	 457.198702,	 2.187988 
1.095000,	 0.157262,	 1.000450,	 1000.347919,	 0.406725,	 521.977459,	 149925.738224,	 458.041157,	 2.183970 
1.125000,	 0.164687,	 1.000454,	 1000.350906,	 0.410829,	 523.929511,	 150487.023172,	 458.896833,	 2.179904 
1.155000,	 0.172113,	 1.000458,	 1000.353945,	 0.415015,	 525.916178,	 151058.265522,	 459.766045,	 2.175789 
1.185000,	 0.179538,	 1.000462,	 1000.357038,	 0.419285,	 527.938385,	 151639.732449,	 460.649123,	 2.171625 
1.215000,	 0.186963,	 1.000466,	 1000.360186,	 0.423642,	 529.997096,	 152231.700765,	 461.546407,	 2.167410 
1.245000,	 0.194387,	 1.000470,	 1000.363380,	 0.428089,	 532.091414,	 152833.912001,	 462.457423,	 2.163147 
1.275000,	 0.201813,	 1.000475,	 1000.366630,	 0.432627,	 534.223895,	 153447.102464,	 463.383200,	 2.158833 
1.305000,	 0.209237,	 1.000479,	 1000.369940,	 0.437261,	 536.395847,	 154071.648466,	 464.324214,	 2.154464 
1.335000,	 0.216663,	 1.000484,	 1000.373311,	 0.441993,	 538.608381,	 154707.869875,	 465.280855,	 2.150042 
1.365000,	 0.224087,	 1.000488,	 1000.376744,	 0.446826,	 540.862644,	 155356.096578,	 466.253519,	 2.145564 
1.395000,	 0.231513,	 1.000493,	 1000.380241,	 0.451763,	 543.159823,	 156016.670984,	 467.242618,	 2.141030 
1.425000,	 0.238938,	 1.000498,	 1000.383805,	 0.456808,	 545.501156,	 156689.948623,	 468.248578,	 2.136438 
1.455000,	 0.246362,	 1.000503,	 1000.387436,	 0.461965,	 547.887924,	 157376.298780,	 469.271839,	 2.131787 
1.485000,	 0.253787,	 1.000508,	 1000.391138,	 0.467236,	 550.321460,	 158076.105166,	 470.312859,	 2.127076 
0.015000,	 0.030000,	 1.000000,	 1000.000000,	 0.000000,	 300.000000,	 86129.212707,	 347.247603,	 2.879789 
0.045000,	 0.030000,	 1.000000,	 1000.000000,	 0.000000,	 300.000000,	 86129.212707,	 347.247603,	 2.879789 
0.075000,	 0.030000,	 1.000000,	 1000.000000,	 0.000000,	 300.000000,	 86129.212707,	 347.247603,	 2.879789 
0.105000,	 0.030000,	 1.000000,	 1000.000000,	 0.000000,	 300.000000,	 86129.212707,	 347.247603,	 2.879789 
0.135000,	 0.030000,	 1.000000,	 1000.000000,	 0.000000,	 300.000000,	 86129.212707,	 347.247603,	 2.879789 
0.165000,	 0.030000,	 1.000000,	 1000.000000,	 0.000000,	 300.000000,	 86129.212707,	 347.247603,	 2.879789 
0.195000,	 0.030000,	 1.000000,	 1000.000000,	 0.000000,	 300.000000,	 86129.212707,	 347.247603,	 2.879789 
0.225000,	 0.030000,	 1.000000,	 1000.000000,	 0.000000,	 300.000000,	 86129.212707,	 347.247603,	 2.879789 
0.255000,	 0.030000,	 1.000000,	 1000.000000,	 0.000000,	 300.000000,	 86129.212707,	 347.247603,	 2.879789 
0.285000,	 0.030000,	 1.000000,	 1000.000000,	 0.000000,	 300.000000,	 86129.212707,	 347.247603,	 2.879789 
0.315000,	 0.030000,	 1.000000,	 1000.000000,	 0.000000,	 300.000000,	 86129.212707,	 347.247603,	 2.879789 
0.345000,	 0.030000,	 1.000000,	 1000.000000,	 0.000000,	 300.000000,	 86129.212707,	 347.247603,	 2.879789 
0.375000,	 0.030000,	 1.000000,	 1000.000000,	 0.000000,	 300.000000,	 86129.212707,	 347.247603,	 2.879789 
0.405000,	 0.030000,	 1.000000,	 1000.000000,	 0.000000,	 300.000000,	 86129.212707,	 347.247603,	 2.879789 
0.435000,	 0.030000,	 1.000000,	 1000.000000,	 0.000000,	 300.000000,	 86129.212707,	 347.247603,	 2.879789 
0.465000,	 0.030000,	 1.000000,	 1000.000000,	 0.000000,	 300.000000,	 86129.212707,	 347.247603,	 2.879789 
0.495000,	 0.031213,	 1.000000,	 1000.000000,	 -0.000000,	 300.000000,	 86129.212707,	 347.247603,	 2.879789 
0.525000,	 0.036062,	 1.000001,	 1000.000618,	 0.002362,	 301.103129,	 86446.027196,	 347.885449,	 2.874511 
0.555000,	 0.043338,	 1.000001,	 1000.000318,	 0.002934,	 301.550908,	 86574.564966,	 348.144028,	 2.872375 
0.585000,	 0.050613,	 1.000001,	 1000.000267,	 0.003034,	 301.633805,	 86598.361360,	 348.191877,	 2.871980 
0.615000,	 0.057887,	 1.000001,	 1000.000249,	 0.003089,	 301.661563,	 86606.330000,	 348.207898,	 2.871848 
0.645000,	 0.065162,	 1.000001,	 1000.000230,	 0.003144,	 301.687213,	 86613.693785,	 348.222702,	 2.871726 
0.675000,	 0.072437,	 1.000001,	 1000.000211,	 0.003201,	 301.713458,	 86621.227939,	 348.237848,	 2.871601 
0.705000,	 0.079712,	 1.000001,	 1000.000191,	 0.003259,	 301.740314,	 86628.937732,	 348.253346,	 2.871473 
0.735000,	 0.086987,	 1.000001,	 1000.000169,	 0.003319,	 301.767801,	 86636.828641,	 348.269208,	 2.871342 
0.765000,	 0.094262,	 1.000001,	 1000.000147,	 0.003380,	 301.795939,	 86644.906355,	 348.285445,	 2.871209 
0.795000,	 0.101538,	 1.000001,	 1000.000123,	 0.003443,	 301.824749,	 86653.176789,	 348.302068,	 2.871071 
0.825000,	 0.108812,	 1.000001,	 1000.000104,	 0.003507,	 301.855506,	 86662.006803,	 348.319814,	 2.870925 
0.855000,	 0.116087,	 1.000001,	 1000.000086,	 0.003574,	 301.887187,	 86671.102280,	 348.338093,	 2.870774 
0.885000,	 0.123363,	 1.000001,	 1000.000066,	 0.003642,	 301.919681,	 86680.430872,	 348.356839,	 2.870620 
0.915000,	 0.130637,	 1.000001,	 1000.000045,	 0.003712,	 301.953014,	 86690.000578,	 348.376069,	 2.870461 
0.945000,	 0.137912,	 1.000001,	 1000.000023,	 0.003784,	 301.987217,	 86699.819743,	 348.395799,	 2.870299 
0.975000,	 0.145187,	 1.000001,	 1000.000000,	 0.003859,	 302.022319,	 86709.897075,	 348.416047,	 2.870132 
1.005000,	 0.152463,	 1.000001,	 999.999975,	 0.003935,	 302.058353,	 86720.241664,	 348.436830,	 2.869961 
1.035000,	 0.159738,	 1.000001,	 999.999950,	 0.004014,	 302.095350,	 86730.863005,	 348.458169,	 2.869785 
1.065000,	 0.167013,	 1.000001,	 999.999923,	 0.004095,	 302.133347,	 86741.771015,	 348.480082,	 2.869604 
1.095000,	 0.174288,	 1.000001,	 999.999894,	 0.004178,	 302.172378,	 86752.976059,	 348.502590,	 2.869419 
1.125000,	 0.181562,	 1.000001,	 999.999864,	 0.004264,	 302.212482,	 86764.488977,	 348.525716,	 2.869228 
1.155000,	 0.188837,	 1.000001,	 999.999832,	 0.004353,	 302.253698,	 86776.321102,	 348.549481,	 2.869033 
1.185000,	 0.196112,	 1.000001,	 999.999799,	 0.004444,	 302.296067,	 86788.484298,	 348.573910,	 2.868831 
1.215000,	 0.203387,	 1.000001,	 999.999764,	 0.004538,	 302.339633,	 86800.990981,	 348.599027,	 2.868625 
1.245000,	 0.210663,	 1.000001,	 999.999738,	 0.004635,	 302.386334,	 86814.398562,	 348.625949,	 2.868403 
1.275000,	 0.217938,	 1.000001,	 999.999712,	 0.004735,	 302.434689,	 86828.280991,	 348.653822,	 2.868174 
1.305000,	 0.225213,	 1.000001,	 999.999683,	 0.004838,	 302.484517,	 86842.586176,	 348.682542,	 2.867937 
1.335000,	 0.232488,	 1.000001,	 999.999654,	 0.004945,	 302.535870,	 86857.329260,	 348.712139,	 2.867694 
1.365000,	 0.239762,	 1.000001,	 999.999623,	 0.005055,	 302.588811,	 86872.528136,	 348.742649,	 2.867443 
1.395000,	 0.247037,	 1.000001,	 999.999590,	 0.005169,	 302.643406,	 86888.201613,	 348.774108,	 2.867184 
1.425000,	 0.254312,	 1.000001,	 999.999556,	 0.005286,	 302.699722,	 86904.369475,	 348.806557,	 2.866917 
1.455000,	 0.261588,	 1.000001,	 999.999519,	 0.005407,	 302.757834,	 86921.052539,	 348.840037,	 2.866642 
1.485000,	 0.268863,	 1.000001,	 999.999481,	 0.005533,	 302.817816,	 86938.272725,	 348.874591,	 2.866358 
0.015000,	 0.050000,	 1.000000,	 1000.000000,	 0.000000,	 300.000000,	 86129.212707,	 347.247603,	 2.879789 
0.045000,	 0.050000,	 1.000000,	 1000.000000,	 0.000000,	 300.000000,	 86129.212707,	 347.247603,	 2.879789 
0.075000,	 0.050000,	 1.000000,	 1000.000000,	 0.000000,	 300.000000,	 86129.212707,	 347.247603,	 2.879789 
0.105000,	 0.050000,	 1.000000,	 1000.000000,	 0.000000,	 300.000000,	 86129.212707,	 347.247603,	 2.879789 
0.135000,	 0.050000,	 1.000000,	 1000.000000,	 0.000000,	 300.000000,	 86129.212707,	 347.247603,	 2.879789 
0.165000,	 0.050000,	 1.000000,	 1000.000000,	 0.000000,	 300.000000,	 86129.212707,	 347.247603,	 2.879789 
0.195000,	 0.050000,	 1.000000,	 1000.000000,	 0.000000,	 300.000000,	 86129.212707,	 347.247603,	 2.879789 
0.225000,	 0.050000,	 1.000000,	 1000.000000,	 0.000000,	 300.000000,	 86129.212707,	 347.247603,	 2.879789 
0.255000,	 0.050000,	 1.000000,	 1000.000000,	 0.000000,	 300.000000,	 86129.212707,	 347.247603,	 2.879789 
0.285000,	 0.050000,	 1.000000,	 1000.000000,	 0.000000,	 300.000000,	 86129.212707,	 347.247603,	 2.879789 
0.315000,	 0.050000,	 1.000000,	 1000.000000,	 0.000000,	 300.000000,	 86129.212707,	 347.247603,	 2.879789 
0.345000,	 0.050000,	 1.000000,	 1000.000000,	 0.000000,	 300.000000,	 86129.212707,	 347.247603,	 2.879789 
0.375000,	 0.050000,	 1.000000,	 1000.000000,	 0.000000,	 300.000000,	 86129.212707,	 347.247603,	 2.879789 
0.405000,	 0.050000,	 1.000000,	 1000.000000,	 0.000000,	 300.000000,	 86129.212707,	 347.247603,	 2.879789 
0.435000,	 0.050000,	 1.000000,	 1000.000000,	 0.000000,	 300.000000,	 86129.212707,	 347.247603,	 2.879789 
0.465000,	 0.050000,	 1.000000,	 1000.000000,	 0.000000,	 300.000000,	 86129.212707,	 347.247603,	 2.879789 
0.495000,	 0.051187,	 1.000000,	 1000.000000,	 0.000000,	 300.000000,	 86129.212707,	 347.247603,	 2.879789 
0.525000,	 0.055938,	 1.000000,	 1000.000009,	 0.000007,	 300.004909,	 86130.623130,	 347.250444,	 2.879766 
0.555000,	 0.063063,	 1.000000,	 1000.000011,	 0.000009,	 300.006396,	 86131.050131,	 347.251305,	 2.879759 
0.585000,	 0.070187,	 1.000000,	 1000.000011,	 0.000009,	 300.006639,	 86131.120010,	 347.251445,	 2.879758 
0.615000,	 0.077313,	 1.000000,	 1000.000012,	 0.000009,	 300.006793,	 86131.164292,	 347.251535,	 2.879757 
0.645000,	 0.084438,	 1.000000,	 1000.000012,	 0.000010,	 300.006952,	 86131.209950,	 347.251627,	 2.879756 
0.675000,	 0.091563,	 1.000000,	 1000.000012,	 0.000010,	 300.007116,	 86131.257037,	 347.251721,	 2.879755 
0.705000,	 0.098688,	 1.000000,	 1000.000013,	 0.000010,	 300.007285,	 86131.305611,	 347.251819,	 2.879755 
0.735000,	 0.105813,	 1.000000,	 1000.000013,	 0.000010,	 300.007460,	 86131.355729,	 347.251920,	 2.879754 
0.765000,	 0.112937,	 1.000000,	 1000.000013,	 0.000011,	 300.007640,	 86131.407454,	 347.252025,	 2.879753 
0.795000,	 0.120063,	 1.000000,	 1000.000014,	 0.000011,	 300.007826,	 86131.460851,	 347.252132,	 2.879752 
0.825000,	 0.127188,	 1.000000,	 1000.000014,	 0.000011,	 300.008018,	 86131.515986,	 347.252243,	 2.879751 
0.855000,	 0.134313,	 1.000000,	 1000.000014,	 0.000011,	 300.008216,	 86131.572932,	 347.252358,	 2.879750 
0.885000,	 0.141438,	 1.000000,	 1000.000015,	 0.000012,	 300.008421,	 86131.631764,	 347.252476,	 2.879749 
0.915000,	 0.148563,	 1.000000,	 1000.000015,	 0.000012,	 300.008632,	 86131.692558,	 347.252599,	 2.879748 
0.945000,	 0.155688,	 1.000000,	 1000.000015,	 0.000012,	 300.008851,	 86131.755399,	 347.252725,	 2.879747 
0.975000,	 0.162812,	 1.000000,	 1000.000016,	 0.000013,	 300.009077,	 86131.820371,	 347.252856,	 2.879746 
1.005000,	 0.169938,	 1.000000,	 1000.000016,	 0.000013,	 300.009311,	 86131.887567,	 347.252992,	 2.879745 
1.035000,	 0.177063,	 1.000000,	 1000.000017,	 0.000013,	 300.009553,	 86131.957082,	 347.253132,	 2.879744 
1.065000,	 0.184188,	 1.000000,	 1000.000017,	 0.000014,	 300.009804,	 86132.029016,	 347.253277,	 2.879742 
1.095000,	 0.191313,	 1.000000,	 1000.000017,	 0.000014,	 300.010063,	 86132.103476,	 347.253427,	 2.879741 
1.125000,	 0.198438,	 1.000000,	 1000.000018,	 0.000014,	 300.010331,	 86132.180572,	 347.253582,	 2.879740 
1.155000,	 0.205563,	 1.000000,	 1000.000018,	 0.000015,	 300.010609,	 86132.260423,	 347.253743,	 2.879739 
1.185000,	 0.212688,	 1.000000,	 1000.000019,	 0.000015,	 300.010897,	 86132.343151,	 347.253910,	 2.879737 
1.215000,	 0.219813,	 1.000000,	 1000.000019,	 0.000016,	 300.011195,	 86132.428888,	 347.254082,	 2.879736 
1.245000,	 0.226938,	 1.000000,	 1000.000020,	 0.000016,	 300.011510,	 86132.519332,	 347.254264,	 2.879734 
1.275000,	 0.234063,	 1.000000,	 1000.000021,	 0.000016,	 300.011837,	 86132.613245,	 347.254454,	 2.879733 
1.305000,	 0.241188,	 1.000000,	 1000.000021,	 0.000017,	 300.012177,	 86132.710734,	 347.254650,	 2.879731 
1.335000,	 0.248312,	 1.000000,	 1000.000022,	 0.000017,	 300.012529,	 86132.811971,	 347.254854,	 2.879729 
1.365000,	 0.255437,	 1.000000,	 1000.000022,	 0.000018,	 300.012895,	 86132.917137,	 347.255066,	 2.879728 
1.395000,	 0.262562,	 1.000000,	 1000.000023,	 0.000019,	 300.013275,	 86133.026423,	 347.255286,	 2.879726 
1.425000,	 0.269687,	 1.000000,	 1000.000024,	 0.000019,	 300.013671,	 86133.140035,	 347.255515,	 2.879724 
1.455000,	 0.276812,	 1.000000,	 1000.000024,	 0.000020,	 300.014082,	 86133.258185,	 347.255753,	 2.879722 
1.485000,	 0.283937,	 1.000000,	 1000.000025,	 0.000020,	 300.014510,	 86133.381104,	 347.256001,	 2.879720 
0.015000,	 0.070000,	 1.000000,	 1000.000000,	 0.000000,	 300.000000,	 86129.212707,	 347.247603,	 2.879789 
0.045000,	 0.070000,	 1.000000,	 1000.000000,	 0.000000,	 300.000000,	 86129.212707,	 347.247603,	 2.879789 
0.075000,	 0.070000,	 1.000000,	 1000.000000,	 0.000000,	 300.000000,	 86129.212707,	 347.247603,	 2.879789 
0.105000,	 0.070000,	 1.000000,	 1000.000000,	 0.000000,	 300.000000,	 86129.212707,	 347.247603,	 2.879789 
0.135000,	 0.070000,	 1.000000,	 1000.000000,	 0.000000,	 300.000000,	 86129.212707,	 347.247603,	 2.879789 
0.165000,	 0.070000,	 1.000000,	 1000.000000,	 0.000000,	 300.000000,	 86129.212707,	 347.247603,	 2.879789 
0.195000,	 0.070000,	 1.000000,	 1000.000000,	 0.000000,	 300.000000,	 86129.212707,	 347.247603,	 2.879789 
0.225000,	 0.070000,	 1.000000,	 1000.000000,	 0.000000,	 300.000000,	 86129.212707,	 347.247603,	 2.879789 
0.255000,	 0.070000,	 1.000000,	 1000.000000,	 0.000000,	 300.000000,	 86129.212707,	 347.247603,	 2.879789 
0.285000,	 0.070000,	 1.000000,	 1000.000000,	 0.000000,	 300.000000,	 86129.212707,	 347.247603,	 2.879789 
0.315000,	 0.070000,	 1.000000,	 1000.000000,	 0.000000,	 300.000000,	 86129.212707,	 347.247603,	 2.879789 
0.345000,	 0.070000,	 1.000000,	 1000.000000,	 0.000000,	 300.000000,	 86129.212707,	 347.247603,	 2.879789 
0.375000,	 0.070000,	 1.000000,	 1000.000000,	 0.000000,	 300.000000,	 86129.212707,	 347.247603,	 2.879789 
0.405000,	 0.070000,	 1.000000,	 1000.000000,	 0.000000,	 300.000000,	 86129.212707,	 347.247603,	 2.879789 
0.435000,	 0.070000,	 1.000000,	 1000.000000,	 0.000000,	 300.000000,	 86129.212707,	 347.247603,	 2.879789 
0.465000,	 0.070000,	 1.000000,	 1000.000000,	 0.000000,	 300.000000,	 86129.212707,	 347.247603,	 2.879789 
0.495000,	 0.071163,	 1.000000,	 1000.000000,	 0.000000,	 300.000000,	 86129.212707,	 347.247603,	 2.879789 
0.525000,	 0.075813,	 1.000000,	 1000.000000,	 0.000000,	 300.000011,	 86129.216001,	 347.247610,	 2.879789 
0.555000,	 0.082787,	 1.000000,	 1000.000000,	 0.000000,	 300.000013,	 86129.216567,	 347.247611,	 2.879789 
0.585000,	 0.089763,	 1.000000,	 1000.000000,	 0.000000,	 300.000014,	 86129.216687,	 347.247611,	 2.879789 
0.615000,	 0.096738,	 1.000000,	 1000.000000,	 0.000000,	 300.000014,	 86129.216811,	 347.247611,	 2.879789 
0.645000,	 0.103712,	 1.000000,	 1000.000000,	 0.000000,	 300.000015,	 86129.216941,	 347.247612,	 2.879789 
0.675000,	 0.110688,	 1.000000,	 1000.000000,	 0.000000,	 300.000015,	 86129.217076,	 347.247612,	 2.879789 
0.705000,	 0.117663,	 1.000000,	 1000.000000,	 0.000000,	 300.000016,	 86129.217216,	 347.247612,	 2.879789 
0.735000,	 0.124637,	 1.000000,	 1000.000000,	 0.000000,	 300.000016,	 86129.217362,	 347.247612,	 2.879789 
0.765000,	 0.131613,	 1.000000,	 1000.000000,	 0.000000,	 300.000017,	 86129.217514,	 347.247613,	 2.879789 
0.795000,	 0.138588,	 1.000000,	 1000.000000,	 0.000000,	 300.000017,	 86129.217671,	 347.247613,	 2.879789 
0.825000,	 0.145562,	 1.000000,	 1000.000000,	 0.000000,	 300.000018,	 86129.217836,	 347.247613,	 2.879789 
0.855000,	 0.152537,	 1.000000,	 1000.000000,	 0.000000,	 300.000018,	 86129.218007,	 347.247614,	 2.879789 
0.885000,	 0.159513,	 1.000000,	 1000.000000,	 0.000000,	 300.000019,	 86129.218186,	 347.247614,	 2.879789 
0.915000,	 0.166488,	 1.000000,	 1000.000000,	 0.000000,	 300.000020,	 86129.218372,	 347.247614,	 2.879789 
0.945000,	 0.173463,	 1.000000,	 1000.000000,	 0.000000,	 300.000020,	 86129.218566,	 347.247615,	 2.879789 
0.975000,	 0.180438,	 1.000000,	 1000.000000,	 0.000000,	 300.000021,	 86129.218768,	 347.247615,	 2.879789 
1.005000,	 0.187413,	 1.000000,	 1000.000000,	 0.000000,	 300.000022,	 86129.218980,	 347.247616,	 2.879789 
1.035000,	 0.194387,	 1.000000,	 1000.000000,	 0.000000,	 300.000023,	 86129.219200,	 347.247616,	 2.879789 
1.065000,	 0.201362,	 1.000000,	 1000.000000,	 0.000000,	 300.000023,	 86129.219430,	 347.247617,	 2.879789 
1.095000,	 0.208338,	 1.000000,	 1000.000000,	 0.000000,	 300.000024,	 86129.219671,	 347.247617,	 2.879789 
1.125000,	 0.215313,	 1.000000,	 1000.000000,	 0.000000,	 300.000025,	 86129.219922,	 347.247618,	 2.879789 
1.155000,	 0.222288,	 1.000000,	 1000.000000,	 0.000000,	 300.000026,	 86129.220185,	 347.247618,	 2.879789 
1.185000,	 0.229262,	 1.000000,	 1000.000000,	 0.000000,	 300.000027,	 86129.220460,	 347.247619,	 2.879789 
1.215000,	 0.236238,	 1.000000,	 1000.000000,	 0.000000,	 300.000028,	 86129.220747,	 347.247619,	 2.879789 
1.245000,	 0.243212,	 1.000000,	 1000.000000,	 0.000000,	 300.000029,	 86129.221048,	 347.247620,	 2.879789 
1.275000,	 0.250188,	 1.000000,	 1000.000000,	 0.000000,	 300.000030,	 86129.221363,	 347.247620,	 2.879789 
1.305000,	 0.257162,	 1.000000,	 1000.000000,	 0.000000,	 300.000031,	 86129.221693,	 347.247621,	 2.879789 
1.335000,	 0.264137,	 1.000000,	 1000.000000,	 0.000000,	 300.000032,	 86129.222039,	 347.247622,	 2.879789 
1.365000,	 0.271112,	 1.000000,	 1000.000000,	 0.000000,	 300.000034,	 86129.222401,	 347.247623,	 2.879789 
1.395000,	 0.278087,	 1.000000,	 1000.000000,	 0.000000,	 300.000035,	 86129.222782,	 347.247623,	 2.879789 
1.425000,	 0.285062,	 1.000000,	 1000.000000,	 0.000000,	 300.000036,	 86129.223181,	 347.247624,	 2.879789 
1.455000,	 0.292038,	 1.000000,	 1000.000000,	 0.000000,	 300.000038,	 86129.223600,	 347.247625,	 2.879789 
1.485000,	 0.299012,	 1.000000,	 1000.000000,	 0.000000,	 300.000039,	 86129.224040,	 347.247626,	 2.879789 
0.015000,	 0.090000,	 1.000000,	 1000.000000,	 0.000000,	 300.000000,	 86129.212707,	 347.247603,	 2.879789 
0.045000,	 0.090000,	 1.000000,	 1000.000000,	 0.000000,	 300.000000,	 86129.212707,	 347.247603,	 2.879789 
0.075000,	 0.090000,	 1.000000,	 1000.000000,	 0.000000,	 300.000000,	 86129.212707,	 347.247603,	 2.879789 
0.105000,	 0.090000,	 1.000000,	 1000.000000,	 0.000000,	 300.000000,	 86129.212707,	 347.247603,	 2.879789 
0.135000,	 0.090000,	 1.000000,	 1000.000000,	 0.000000,	 300.000000,	 86129.212707,	 347.247603,	 2.879789 
0.165000,	 0.090000,	 1.000000,	 1000.000000,	 0.000000,	 300.000000,	 86129.212707,	 347.247603,	 2.879789 
0.195000,	 0.090000,	 1.000000,	 1000.000000,	 0.000000,	 300.000000,	 86129.212707,	 347.247603,	 2.879789 
0.225000,	 0.090000,	 1.000000,	 1000.000000,	 0.000000,	 300.000000,	 86129.212707,	 347.247603,	 2.879789 
0.255000,	 0.090000,	 1.000000,	 1000.000000,	 0.000000,	 300.000000,	 86129.212707,	 347.247603,	 2.879789 
0.285000,	 0.090000,	 1.000000,	 1000.000000,	 0.000000,	 300.000000,	 86129.212707,	 347.247603,	 2.879789 
0.315000,	 0.090000,	 1.000000,	 1000.000000,	 0.000000,	 300.000000,	 86129.212707,	 347.247603,	 2.879789 
0.345000,	 0.090000,	 1.000000,	 1000.000000,	 0.000000,	 300.000000,	 86129.212707,	 347.247603,	 2.879789 
0.375000,	 0.090000,	 1.000000,	 1000.000000,	 0.000000,	 300.000000,	 86129.212707,	 347.247603,	 2.879789 
0.405000,	 0.090000,	 1.000000,	 1000.000000,	 0.000000,	 300.000000,	 86129.212707,	 347.247603,	 2.879789 
0.435000,	 0.090000,	 1.000000,	 1000.000000,	 0.000000,	 300.000000,	 86129.212707,	 347.247603,	 2.879789 
0.465000,	 0.090000,	 1.000000,	 1000.000000,	 0.000000,	 300.000000,	 86129.212707,	 347.247603,	 2.879789 
0.495000,	 0.091138,	 1.000000,	 1000.000000,	 0.000000,	 300.000000,	 86129.212707,	 347.247603,	 2.879789 
0.525000,	 0.095687,	 1.000000,	 1000.000000,	 0.000000,	 300.000000,	 86129.212710,	 347.247603,	 2.879789 
0.555000,	 0.102513,	 1.000000,	 1000.000000,	 0.000000,	 300.000000,	 86129.212710,	 347.247603,	 2.879789 
0.585000,	 0.109338,	 1.000000,	 1000.000000,	 0.000000,	 300.000000,	 86129.212711,	 347.247603,	 2.879789 
0.615000,	 0.116162,	 1.000000,	 1000.000000,	 0.000000,	 300.000000,	 86129.212711,	 347.247603,	 2.879789 
0.645000,	 0.122987,	 1.000000,	 1000.000000,	 0.000000,	 300.000000,	 86129.212711,	 347.247603,	 2.879789 
0.675000,	 0.129812,	 1.000000,	 1000.000000,	 0.000000,	 300.000000,	 86129.212711,	 347.247603,	 2.879789 
0.705000,	 0.136637,	 1.000000,	 1000.000000,	 0.000000,	 300.000000,	 86129.212711,	 347.247603,	 2.879789 
0.735000,	 0.143462,	 1.000000,	 1000.000000,	 0.000000,	 300.000000,	 86129.212711,	 347.247603,	 2.879789 
0.765000,	 0.150288,	 1.000000,	 1000.000000,	 0.000000,	 300.000000,	 86129.212712,	 347.247603,	 2.879789 
0.795000,	 0.157112,	 1.000000,	 1000.000000,	 0.000000,	 300.000000,	 86129.212712,	 347.247603,	 2.879789 
0.825000,	 0.163938,	 1.000000,	 1000.000000,	 0.000000,	 300.000000,	 86129.212712,	 347.247603,	 2.879789 
0.855000,	 0.170763,	 1.000000,	 1000.000000,	 0.000000,	 300.000000,	 86129.212712,	 347.247603,	 2.879789 
0.885000,	 0.177587,	 1.000000,	 1000.000000,	 0.000000,	 300.000000,	 86129.212712,	 347.247603,	 2.879789 
0.915000,	 0.184412,	 1.000000,	 1000.000000,	 0.000000,	 300.000000,	 86129.212712,	 347.247603,	 2.879789 
0.945000,	 0.191238,	 1.000000,	 1000.000000,	 0.000000,	 300.000000,	 86129.212713,	 347.247603,	 2.879789 
0.975000,	 0.198063,	 1.000000,	 1000.000000,	 0.000000,	 300.000000,	 86129.212713,	 347.247603,	 2.879789 
1.005000,	 0.204888,	 1.000000,	 1000.000000,	 0.000000,	 300.000000,	 86129.212713,	 347.247603,	 2.879789 
1.035000,	 0.211712,	 1.000000,	 1000.000000,	 0.000000,	 300.000000,	 86129.212713,	 347.247603,	 2.879789 
1.065000,	 0.218537,	 1.000000,	 1000.000000,	 0.000000,	 300.000000,	 86129.212714,	 347.247603,	 2.879789 
1.095000,	 0.225362,	 1.000000,	 1000.000000,	 0.000000,	 300.000000,	 86129.212714,	 347.247603,	 2.879789 
1.125000,	 0.232187,	 1.000000,	 1000.000000,	 0.000000,	 300.000000,	 86129.212714,	 347.247603,	 2.879789 
1.155000,	 0.239013,	 1.000000,	 1000.000000,	 0.000000,	 300.000000,	 86129.212715,	 347.247603,	 2.879789 
1.185000,	 0.245837,	 1.000000,	 1000.000000,	 0.000000,	 300.000000,	 86129.212715,	 347.247603,	 2.879789 
1.215000,	 0.252663,	 1.000000,	 1000.000000,	 0.000000,	 300.000000,	 86129.212715,	 347.247603,	 2.879789 
1.245000,	 0.259487,	 1.000000,	 1000.000000,	 0.000000,	 300.000000,	 86129.212716,	 347.247603,	 2.879789 
1.275000,	 0.266312,	 1.000000,	 1000.000000,	 0.000000,	 300.000000,	 86129.212716,	 347.247603,	 2.879789 
1.305000,	 0.273137,	 1.000000,	 1000.000000,	 0.000000,	 300.000000,	 86129.212717,	 347.247603,	 2.879789 
1.335000,	 0.279963,	 1.000000,	 1000.000000,	 0.000000,	 300.000000,	 86129.212717,	 347.247603,	 2.879789 
1.365000,	 0.286788,	 1.000000,	 1000.000000,	 0.000000,	 300.000000,	 86129.212718,	 347.247603,	 2.879789 
1.395000,	 0.293612,	 1.000000,	 1000.000000,	 0.000000,	 300.000000,	 86129.212718,	 347.247603,	 2.879789 
1.425000,	 0.300438,	 1.000000,	 1000.000000,	 0.000000,	 300.000000,	 86129.212719,	 347.247603,	 2.879789 
1.455000,	 0.307262,	 1.000000,	 1000.000000,	 0.000000,	 300.000000,	 86129.212719,	 347.247603,	 2.879789 
1.485000,	 0.314087,	 1.000000,	 1000.000000,	 0.000000,	 300.000000,	 86129.212720,	 347.247603,	 2.879789 
0.015000,	 0.110000,	 1.000000,	 1000.000000,	 0.000000,	 300.000000,	 86129.212707,	 347.247603,	 2.879789 
0.045000,	 0.110000,	 1.000000,	 1000.000000,	 0.000000,	 300.000000,	 86129.212707,	 347.247603,	 2.879789 
0.075000,	 0.110000,	 1.000000,	 1000.000000,	 0.000000,	 300.000000,	 86129.212707,	 347.247603,	 2.879789 
0.105000,	 0.110000,	 1.000000,	 1000.000000,	 0.000000,	 300.000000,	 86129.212707,	 347.247603,	 2.879789 
0.135000,	 0.110000,	 1.000000,	 1000.000000,	 0.000000,	 300.000000,	 86129.212707,	 347.247603,	 2.879789 
0.165000,	 0.110000,	 1.000000,	 1000.000000,	 0.000000,	 300.000000,	 86129.212707,	 347.247603,	 2.879789 
0.195000,	 0.110000,	 1.000000,	 1000.000000,	 0.000000,	 300.000000,	 86129.212707,	 347.247603,	 2.879789 
0.225000,	 0.110000,	 1.000000,	 1000.000000,	 0.000000,	 300.000000,	 86129.212707,	 347.247603,	 2.879789 
0.255000,	 0.110000,	 1.000000,	 1000.000000,	 0.000000,	 300.000000,	 86129.212707,	 347.247603,	 2.879789 
0.285000,	 0.110000,	 1.000000,	 1000.000000,	 0.000000,	 300.000000,	 86129.212707,	 347.247603,	 2.879789 
0.315000,	 0.110000,	 1.000000,	 1000.000000,	 0.000000,	 300.000000,	 86129.212707,	 347.247603,	 2.879789 
0.345000,	 0.110000,	 1.000000,	 1000.000000,	 0.000000,	 300.000000,	 86129.212707,	 347.247603,	 2.879789 
0.375000,	 0.110000,	 1.000000,	 1000.000000,	 0.000000,	 300.000000,	 86129.212707,	 347.247603,	 2.879789 
0.405000,	 0.110000,	 1.000000,	 1000.000000,	 0.000000,	 300.000000,	 86129.212707,	 347.247603,	 2.879789 
0.435000,	 0.110000,	 1.000000,	 1000.000000,	 0.000000,	 300.000000,	 86129.212707,	 347.247603,	 2.879789 
0.465000,	 0.110000,	 1.000000,	 1000.000000,	 0.000000,	 300.000000,	 86129.212707,	 347.247603,	 2.879789 
0.495000,	 0.111113,	 1.000000,	 1000.000000,	 0.000000,	 300.000000,	 86129.212707,	 347.247603,	 2.879789 
0.525000,	 0.115562,	 1.000000,	 1000.000000,	 -0.000000,	 300.000000,	 86129.212707,	 347.247603,	 2.879789 
0.555000,	 0.122237,	 1.000000,	 1000.000000,	 -0.000000,	 300.000000,	 86129.212707,	 347.247603,	 2.879789 
0.585000,	 0.128912,	 1.000000,	 1000.000000,	 -0.000000,	 300.000000,	 86129.212707,	 347.247603,	 2.879789 
0.615000,	 0.135587,	 1.000000,	 1000.000000,	 -0.000000,	 300.000000,	 86129.212707,	 347.247603,	 2.879789 
0.645000,	 0.142263,	 1.000000,	 1000.000000,	 -0.000000,	 300.000000,	 86129.212707,	 347.247603,	 2.879789 
0.675000,	 0.148938,	 1.000000,	 1000.000000,	 -0.000000,	 300.000000,	 86129.212707,	 347.247603,	 2.879789 