TITLE = "Final State"
VARIABLES = "X", "Y", "rho", "u", "v", "T", "p", "c", "M"
ZONE I=100, J=100, DATAPACKING=POINT
0.005000,	 0.000015,	 1.000000,	 10.000000,	 0.000000,	 300.000000,	 86129.212707,	 347.247603,	 0.028798 
0.015000,	 0.000015,	 1.000000,	 10.000000,	 -0.000000,	 300.000000,	 86129.212707,	 347.247603,	 0.028798 
0.025000,	 0.000015,	 1.000000,	 10.000000,	 0.000000,	 300.000000,	 86129.212709,	 347.247603,	 0.028798 
0.035000,	 0.000015,	 1.000000,	 10.000000,	 0.000000,	 300.000000,	 86129.212713,	 347.247603,	 0.028798 
0.045000,	 0.000015,	 1.000000,	 10.000000,	 -0.000000,	 300.000000,	 86129.212729,	 347.247603,	 0.028798 
0.055000,	 0.000015,	 1.000000,	 10.000000,	 0.000000,	 300.000000,	 86129.212787,	 347.247603,	 0.028798 
0.065000,	 0.000015,	 1.000000,	 9.999999,	 0.000000,	 300.000000,	 86129.212987,	 347.247603,	 0.028798 
0.075000,	 0.000015,	 1.000000,	 9.999997,	 0.000000,	 300.000000,	 86129.213631,	 347.247603,	 0.028798 
0.085000,	 0.000015,	 1.000000,	 9.999990,	 0.000000,	 300.000000,	 86129.215565,	 347.247603,	 0.028798 
0.095000,	 0.000015,	 1.000000,	 9.999971,	 0.000000,	 300.000000,	 86129.220967,	 347.247603,	 0.028798 
0.105000,	 0.000015,	 1.000000,	 9.999919,	 0.000000,	 300.000001,	 86129.234908,	 347.247604,	 0.028798 
0.115000,	 0.000015,	 1.000001,	 9.999776,	 0.000001,	 300.000004,	 86129.267931,	 347.247605,	 0.028797 
0.125000,	 0.000015,	 1.000001,	 9.999391,	 0.000004,	 300.000011,	 86129.339164,	 347.247610,	 0.028796 
0.135000,	 0.000015,	 1.000003,	 9.998327,	 0.000012,	 300.000032,	 86129.477780,	 347.247621,	 0.028793 
0.145000,	 0.000015,	 1.000006,	 9.995319,	 0.000037,	 300.000094,	 86129.718411,	 347.247657,	 0.028784 
0.155000,	 0.000015,	 1.000009,	 9.986681,	 0.000114,	 300.000286,	 86130.086325,	 347.247768,	 0.028760 
0.165000,	 0.000015,	 1.000013,	 9.962017,	 0.000342,	 300.000897,	 86130.575772,	 347.248122,	 0.028688 
0.175000,	 0.000015,	 1.000013,	 9.893040,	 0.001005,	 300.002881,	 86131.142594,	 347.249270,	 0.028490 
0.185000,	 0.000015,	 0.999998,	 9.704156,	 0.002957,	 300.009439,	 86131.756592,	 347.253066,	 0.027945 
0.195000,	 0.000015,	 0.999934,	 9.188061,	 0.009034,	 300.031440,	 86132.581896,	 347.265798,	 0.026458 
0.205000,	 0.000015,	 0.999745,	 7.727637,	 0.029788,	 300.096605,	 86134.946989,	 347.303508,	 0.022251 
0.215000,	 0.000015,	 1.000251,	 3.226123,	 -0.000630,	 299.960859,	 86139.601263,	 347.224949,	 0.009291 
0.225000,	 0.000015,	 1.000109,	 2.078889,	 -0.000257,	 299.992328,	 86136.396861,	 347.243163,	 0.005987 
0.235000,	 0.000015,	 1.000067,	 1.751205,	 -0.000252,	 300.000729,	 86135.164535,	 347.248025,	 0.005043 
0.245000,	 0.000015,	 1.000053,	 1.648606,	 -0.000281,	 300.002296,	 86134.453597,	 347.248932,	 0.004748 
0.255000,	 0.000015,	 1.000046,	 1.614660,	 -0.000299,	 300.002630,	 86133.932803,	 347.249125,	 0.004650 
0.265000,	 0.000015,	 1.000041,	 1.603185,	 -0.000307,	 300.002711,	 86133.540284,	 347.249172,	 0.004617 
0.275000,	 0.000015,	 1.000038,	 1.599274,	 -0.000310,	 300.002733,	 86133.265454,	 347.249185,	 0.004606 
0.285000,	 0.000015,	 1.000036,	 1.597920,	 -0.000310,	 300.002740,	 86133.091787,	 347.249189,	 0.004602 
0.295000,	 0.000015,	 1.000035,	 1.597435,	 -0.000310,	 300.002742,	 86132.993003,	 347.249190,	 0.004600 
0.305000,	 0.000015,	 1.000034,	 1.597254,	 -0.000310,	 300.002743,	 86132.942163,	 347.249190,	 0.004600 
0.315000,	 0.000015,	 1.000034,	 1.597185,	 -0.000310,	 300.002743,	 86132.918323,	 347.249190,	 0.004600 
0.325000,	 0.000015,	 1.000034,	 1.597158,	 -0.000310,	 300.002743,	 86132.908069,	 347.249190,	 0.004599 
0.335000,	 0.000015,	 1.000034,	 1.597148,	 -0.000310,	 300.002743,	 86132.903998,	 347.249191,	 0.004599 
0.345000,	 0.000015,	 1.000034,	 1.597144,	 -0.000310,	 300.002743,	 86132.902498,	 347.249191,	 0.004599 
0.355000,	 0.000015,	 1.000034,	 1.597143,	 -0.000310,	 300.002743,	 86132.901982,	 347.249191,	 0.004599 
0.365000,	 0.000015,	 1.000034,	 1.597143,	 -0.000310,	 300.002743,	 86132.901816,	 347.249191,	 0.004599 
0.375000,	 0.000015,	 1.000034,	 1.597143,	 -0.000310,	 300.002743,	 86132.901766,	 347.249191,	 0.004599 
0.385000,	 0.000015,	 1.000034,	 1.597143,	 -0.000310,	 300.002743,	 86132.901752,	 347.249191,	 0.004599 
0.395000,	 0.000015,	 1.000034,	 1.597143,	 -0.000310,	 300.002743,	 86132.901748,	 347.249191,	 0.004599 
0.405000,	 0.000015,	 1.000034,	 1.597143,	 -0.000310,	 300.002743,	 86132.901747,	 347.249191,	 0.004599 
0.415000,	 0.000015,	 1.000034,	 1.597143,	 -0.000310,	 300.002743,	 86132.901747,	 347.249191,	 0.004599 
0.425000,	 0.000015,	 1.000034,	 1.597143,	 -0.000310,	 300.002743,	 86132.901747,	 347.249191,	 0.004599 
0.435000,	 0.000015,	 1.000034,	 1.597143,	 -0.000310,	 300.002743,	 86132.901747,	 347.249191,	 0.004599 
0.445000,	 0.000015,	 1.000034,	 1.597143,	 -0.000310,	 300.002743,	 86132.901747,	 347.249191,	 0.004599 
0.455000,	 0.000015,	 1.000034,	 1.597143,	 -0.000310,	 300.002743,	 86132.901747,	 347.249191,	 0.004599 
0.465000,	 0.000015,	 1.000034,	 1.597143,	 -0.000310,	 300.002743,	 86132.901747,	 347.249191,	 0.004599 
0.475000,	 0.000015,	 1.000034,	 1.597143,	 -0.000310,	 300.002743,	 86132.901747,	 347.249191,	 0.004599 
0.485000,	 0.000015,	 1.000034,	 1.597143,	 -0.000310,	 300.002743,	 86132.901747,	 347.249191,	 0.004599 
0.495000,	 0.000015,	 1.000034,	 1.597143,	 -0.000310,	 300.002743,	 86132.901747,	 347.249191,	 0.004599 
0.505000,	 0.000015,	 1.000034,	 1.597143,	 -0.000310,	 300.002743,	 86132.901747,	 347.249191,	 0.004599 
0.515000,	 0.000015,	 1.000034,	 1.597143,	 -0.000310,	 300.002743,	 86132.901747,	 347.249191,	 0.004599 
0.525000,	 0.000015,	 1.000034,	 1.597143,	 -0.000310,	 300.002743,	 86132.901747,	 347.249191,	 0.004599 
0.535000,	 0.000015,	 1.000034,	 1.597143,	 -0.000310,	 300.002743,	 86132.901747,	 347.249191,	 0.004599 
0.545000,	 0.000015,	 1.000034,	 1.597143,	 -0.000310,	 300.002743,	 86132.901747,	 347.249191,	 0.004599 
0.555000,	 0.000015,	 1.000034,	 1.597143,	 -0.000310,	 300.002743,	 86132.901747,	 347.249191,	 0.004599 
0.565000,	 0.000015,	 1.000034,	 1.597143,	 -0.000310,	 300.002743,	 86132.901747,	 347.249191,	 0.004599 
0.575000,	 0.000015,	 1.000034,	 1.597143,	 -0.000310,	 300.002743,	 86132.901747,	 347.249191,	 0.004599 
0.585000,	 0.000015,	 1.000034,	 1.597143,	 -0.000310,	 300.002743,	 86132.901747,	 347.249191,	 0.004599 
0.595000,	 0.000015,	 1.000034,	 1.597143,	 -0.000310,	 300.002743,	 86132.901747,	 347.249191,	 0.004599 
0.605000,	 0.000015,	 1.000034,	 1.597143,	 -0.000310,	 300.002743,	 86132.901747,	 347.249191,	 0.004599 
0.615000,	 0.000015,	 1.000034,	 1.597143,	 -0.000310,	 300.002743,	 86132.901747,	 347.249191,	 0.004599 
0.625000,	 0.000015,	 1.000034,	 1.597143,	 -0.000310,	 300.002743,	 86132.901747,	 347.249191,	 0.004599 
0.635000,	 0.000015,	 1.000034,	 1.597143,	 -0.000310,	 300.002743,	 86132.901747,	 347.249191,	 0.004599 
0.645000,	 0.000015,	 1.000034,	 1.597143,	 -0.000310,	 300.002743,	 86132.901747,	 347.249191,	 0.004599 
0.655000,	 0.000015,	 1.000034,	 1.597143,	 -0.000310,	 300.002743,	 86132.901747,	 347.249191,	 0.004599 
0.665000,	 0.000015,	 1.000034,	 1.597143,	 -0.000310,	 300.002743,	 86132.901747,	 347.249191,	 0.004599 
0.675000,	 0.000015,	 1.000034,	 1.597143,	 -0.000310,	 300.002743,	 86132.901747,	 347.249191,	 0.004599 
0.685000,	 0.000015,	 1.000034,	 1.597143,	 -0.000310,	 300.002743,	 86132.901747,	 347.249191,	 0.004599 
0.695000,	 0.000015,	 1.000034,	 1.597143,	 -0.000310,	 300.002743,	 86132.901747,	 347.249191,	 0.004599 
0.705000,	 0.000015,	 1.000034,	 1.597143,	 -0.000310,	 300.002743,	 86132.901747,	 347.249191,	 0.004599 
0.715000,	 0.000015,	 1.000034,	 1.597143,	 -0.000310,	 300.002743,	 86132.901747,	 347.249191,	 0.004599 
0.725000,	 0.000015,	 1.000034,	 1.597143,	 -0.000310,	 300.002743,	 86132.901747,	 347.249191,	 0.004599 
0.735000,	 0.000015,	 1.000034,	 1.597143,	 -0.000310,	 300.002743,	 86132.901747,	 347.249191,	 0.004599 
0.745000,	 0.000015,	 1.000034,	 1.597143,	 -0.000310,	 300.002743,	 86132.901747,	 347.249191,	 0.004599 
0.755000,	 0.000015,	 1.000034,	 1.597143,	 -0.000310,	 300.002743,	 86132.901747,	 347.249191,	 0.004599 
0.765000,	 0.000015,	 1.000034,	 1.597143,	 -0.000310,	 300.002743,	 86132.901747,	 347.249191,	 0.004599 
0.775000,	 0.000015,	 1.000034,	 1.597143,	 -0.000310,	 300.002743,	 86132.901747,	 347.249191,	 0.004599 
0.785000,	 0.000015,	 1.000034,	 1.597143,	 -0.000310,	 300.002743,	 86132.901747,	 347.249191,	 0.004599 
0.795000,	 0.000015,	 1.000034,	 1.597143,	 -0.000310,	 300.002743,	 86132.901747,	 347.249191,	 0.004599 
0.805000,	 0.000015,	 1.000034,	 1.597143,	 -0.000310,	 300.002743,	 86132.901747,	 347.249191,	 0.004599 
0.815000,	 0.000015,	 1.000034,	 1.597143,	 -0.000310,	 300.002743,	 86132.901747,	 347.249191,	 0.004599 
0.825000,	 0.000015,	 1.000034,	 1.597143,	 -0.000310,	 300.002743,	 86132.901747,	 347.249191,	 0.004599 
0.835000,	 0.000015,	 1.000034,	 1.597143,	 -0.000310,	 300.002743,	 86132.901747,	 347.249191,	 0.004599 
0.845000,	 0.000015,	 1.000034,	 1.597143,	 -0.000310,	 300.002743,	 86132.901747,	 347.249191,	 0.004599 
0.855000,	 0.000015,	 1.000034,	 1.597143,	 -0.000310,	 300.002743,	 86132.901747,	 347.249191,	 0.004599 
0.865000,	 0.000015,	 1.000034,	 1.597143,	 -0.000310,	 300.002743,	 86132.901747,	 347.249191,	 0.004599 
0.875000,	 0.000015,	 1.000034,	 1.597143,	 -0.000310,	 300.002743,	 86132.901747,	 347.249191,	 0.004599 
0.885000,	 0.000015,	 1.000034,	 1.597143,	 -0.000310,	 300.002743,	 86132.901747,	 347.249191,	 0.004599 
0.895000,	 0.000015,	 1.000034,	 1.597143,	 -0.000310,	 300.002743,	 86132.901747,	 347.249191,	 0.004599 
0.905000,	 0.000015,	 1.000034,	 1.597143,	 -0.000310,	 300.002743,	 86132.901747,	 347.249191,	 0.004599 
0.915000,	 0.000015,	 1.000034,	 1.597143,	 -0.000310,	 300.002743,	 86132.901747,	 347.249191,	 0.004599 
0.925000,	 0.000015,	 1.000034,	 1.597143,	 -0.000310,	 300.002743,	 86132.901747,	 347.249191,	 0.004599 
0.935000,	 0.000015,	 1.000034,	 1.597143,	 -0.000310,	 300.002743,	 86132.901747,	 347.249191,	 0.004599 
0.945000,	 0.000015,	 1.000034,	 1.597143,	 -0.000310,	 300.002743,	 86132.901747,	 347.249191,	 0.004599 
0.955000,	 0.000015,	 1.000034,	 1.597143,	 -0.000310,	 300.002743,	 86132.901747,	 347.249191,	 0.004599 
0.965000,	 0.000015,	 1.000034,	 1.597143,	 -0.000310,	 300.002743,	 86132.901747,	 347.249191,	 0.004599 
0.975000,	 0.000015,	 1.000034,	 1.597143,	 -0.000310,	 300.002743,	 86132.901747,	 347.249191,	 0.004599 
0.985000,	 0.000015,	 1.000034,	 1.597143,	 -0.000310,	 300.002743,	 86132.901747,	 347.249191,	 0.004599 
0.995000,	 0.000015,	 1.000034,	 1.597143,	 -0.000310,	 300.002743,	 86132.901747,	 347.249191,	 0.004599 
0.005000,	 0.000046,	 1.000000,	 10.000000,	 0.000000,	 300.000000,	 86129.212707,	 347.247603,	 0.028798 
0.015000,	 0.000046,	 1.000000,	 10.000000,	 -0.000000,	 300.000000,	 86129.212707,	 347.247603,	 0.028798 
0.025000,	 0.000046,	 1.000000,	 10.000000,	 0.000000,	 300.000000,	 86129.212709,	 347.247603,	 0.028798 
0.035000,	 0.000046,	 1.000000,	 10.000000,	 0.000000,	 300.000000,	 86129.212713,	 347.247603,	 0.028798 
0.045000,	 0.000046,	 1.000000,	 10.000000,	 -0.000000,	 300.000000,	 86129.212729,	 347.247603,	 0.028798 
0.055000,	 0.000046,	 1.000000,	 10.000000,	 0.000000,	 300.000000,	 86129.212787,	 347.247603,	 0.028798 
0.065000,	 0.000046,	 1.000000,	 9.999999,	 0.000000,	 300.000000,	 86129.212988,	 347.247603,	 0.028798 
0.075000,	 0.000046,	 1.000000,	 9.999996,	 0.000000,	 300.000000,	 86129.213634,	 347.247603,	 0.028798 
0.085000,	 0.000046,	 1.000000,	 9.999987,	 0.000000,	 300.000000,	 86129.215574,	 347.247603,	 0.028798 
0.095000,	 0.000046,	 1.000000,	 9.999961,	 0.000000,	 300.000001,	 86129.220993,	 347.247603,	 0.028798 
0.105000,	 0.000046,	 1.000000,	 9.999887,	 0.000000,	 300.000002,	 86129.234984,	 347.247604,	 0.028798 
0.115000,	 0.000046,	 1.000001,	 9.999682,	 0.000001,	 300.000005,	 86129.268148,	 347.247606,	 0.028797 
0.125000,	 0.000046,	 1.000001,	 9.999117,	 0.000005,	 300.000014,	 86129.339781,	 347.247611,	 0.028795 
0.135000,	 0.000046,	 1.000003,	 9.997546,	 0.000017,	 300.000040,	 86129.479545,	 347.247626,	 0.028791 
0.145000,	 0.000046,	 1.000006,	 9.993117,	 0.000056,	 300.000117,	 86129.723503,	 347.247671,	 0.028778 
0.155000,	 0.000046,	 1.000009,	 9.980647,	 0.000173,	 300.000345,	 86130.100941,	 347.247802,	 0.028742 
0.165000,	 0.000046,	 1.000013,	 9.946324,	 0.000507,	 300.001001,	 86130.616710,	 347.248183,	 0.028643 
0.175000,	 0.000046,	 1.000014,	 9.855906,	 0.001430,	 300.002802,	 86131.252305,	 347.249225,	 0.028383 
0.185000,	 0.000046,	 1.000008,	 9.631527,	 0.003968,	 300.007310,	 86132.032011,	 347.251834,	 0.027736 
0.195000,	 0.000046,	 0.999990,	 9.114179,	 0.011169,	 300.016901,	 86133.203931,	 347.257384,	 0.026246 
0.205000,	 0.000046,	 0.999972,	 8.037208,	 0.033287,	 300.032178,	 86136.038075,	 347.266225,	 0.023144 
0.215000,	 0.000046,	 1.000138,	 6.214823,	 0.009618,	 299.980945,	 86135.627588,	 347.236575,	 0.017898 
0.225000,	 0.000046,	 1.000105,	 5.246929,	 0.002088,	 299.989006,	 86135.101456,	 347.241240,	 0.015110 
0.235000,	 0.000046,	 1.000074,	 4.818514,	 0.000099,	 299.996142,	 86134.445601,	 347.245370,	 0.013876 
0.245000,	 0.000046,	 1.000057,	 4.643373,	 -0.000507,	 299.999035,	 86133.858262,	 347.247044,	 0.013372 
0.255000,	 0.000046,	 1.000048,	 4.575821,	 -0.000712,	 300.000029,	 86133.362630,	 347.247620,	 0.013177 
0.265000,	 0.000046,	 1.000043,	 4.550938,	 -0.000785,	 300.000351,	 86132.974622,	 347.247806,	 0.013106 
0.275000,	 0.000046,	 1.000039,	 4.542092,	 -0.000810,	 300.000453,	 86132.700383,	 347.247865,	 0.013080 
0.285000,	 0.000046,	 1.000037,	 4.539005,	 -0.000818,	 300.000485,	 86132.526747,	 347.247884,	 0.013071 
0.295000,	 0.000046,	 1.000036,	 4.537925,	 -0.000821,	 300.000495,	 86132.427970,	 347.247890,	 0.013068 
0.305000,	 0.000046,	 1.000035,	 4.537541,	 -0.000821,	 300.000499,	 86132.377148,	 347.247892,	 0.013067 
0.315000,	 0.000046,	 1.000035,	 4.537402,	 -0.000821,	 300.000500,	 86132.353325,	 347.247892,	 0.013067 
0.325000,	 0.000046,	 1.000035,	 4.537351,	 -0.000821,	 300.000500,	 86132.343081,	 347.247893,	 0.013067 
0.335000,	 0.000046,	 1.000035,	 4.537333,	 -0.000821,	 300.000500,	 86132.339014,	 347.247893,	 0.013067 
0.345000,	 0.000046,	 1.000035,	 4.537327,	 -0.000821,	 300.000501,	 86132.337516,	 347.247893,	 0.013067 
0.355000,	 0.000046,	 1.000035,	 4.537324,	 -0.000821,	 300.000501,	 86132.337001,	 347.247893,	 0.013067 
0.365000,	 0.000046,	 1.000035,	 4.537324,	 -0.000821,	 300.000501,	 86132.336835,	 347.247893,	 0.013067 
0.375000,	 0.000046,	 1.000035,	 4.537324,	 -0.000821,	 300.000501,	 86132.336785,	 347.247893,	 0.013067 
0.385000,	 0.000046,	 1.000035,	 4.537324,	 -0.000821,	 300.000501,	 86132.336771,	 347.247893,	 0.013067 
0.395000,	 0.000046,	 1.000035,	 4.537324,	 -0.000821,	 300.000501,	 86132.336767,	 347.247893,	 0.013067 
0.405000,	 0.000046,	 1.000035,	 4.537324,	 -0.000821,	 300.000501,	 86132.336766,	 347.247893,	 0.013067 
0.415000,	 0.000046,	 1.000035,	 4.537324,	 -0.000821,	 300.000501,	 86132.336765,	 347.247893,	 0.013067 
0.425000,	 0.000046,	 1.000035,	 4.537324,	 -0.000821,	 300.000501,	 86132.336765,	 347.247893,	 0.013067 
0.435000,	 0.000046,	 1.000035,	 4.537324,	 -0.000821,	 300.000501,	 86132.336765,	 347.247893,	 0.013067 
0.445000,	 0.000046,	 1.000035,	 4.537324,	 -0.000821,	 300.000501,	 86132.336765,	 347.247893,	 0.013067 
0.455000,	 0.000046,	 1.000035,	 4.537324,	 -0.000821,	 300.000501,	 86132.336765,	 347.247893,	 0.013067 
0.465000,	 0.000046,	 1.000035,	 4.537324,	 -0.000821,	 300.000501,	 86132.336765,	 347.247893,	 0.013067 
0.475000,	 0.000046,	 1.000035,	 4.537324,	 -0.000821,	 300.000501,	 86132.336765,	 347.247893,	 0.013067 
0.485000,	 0.000046,	 1.000035,	 4.537324,	 -0.000821,	 300.000501,	 86132.336765,	 347.247893,	 0.013067 
0.495000,	 0.000046,	 1.000035,	 4.537324,	 -0.000821,	 300.000501,	 86132.336765,	 347.247893,	 0.013067 
0.505000,	 0.000046,	 1.000035,	 4.537324,	 -0.000821,	 300.000501,	 86132.336765,	 347.247893,	 0.013067 
0.515000,	 0.000046,	 1.000035,	 4.537324,	 -0.000821,	 300.000501,	 86132.336765,	 347.247893,	 0.013067 
0.525000,	 0.000046,	 1.000035,	 4.537324,	 -0.000821,	 300.000501,	 86132.336765,	 347.247893,	 0.013067 
0.535000,	 0.000046,	 1.000035,	 4.537324,	 -0.000821,	 300.000501,	 86132.336765,	 347.247893,	 0.013067 
0.545000,	 0.000046,	 1.000035,	 4.537324,	 -0.000821,	 300.000501,	 86132.336765,	 347.247893,	 0.013067 
0.555000,	 0.000046,	 1.000035,	 4.537324,	 -0.000821,	 300.000501,	 86132.336765,	 347.247893,	 0.013067 
0.565000,	 0.000046,	 1.000035,	 4.537324,	 -0.000821,	 300.000501,	 86132.336765,	 347.247893,	 0.013067 
0.575000,	 0.000046,	 1.000035,	 4.537324,	 -0.000821,	 300.000501,	 86132.336765,	 347.247893,	 0.013067 
0.585000,	 0.000046,	 1.000035,	 4.537324,	 -0.000821,	 300.000501,	 86132.336765,	 347.247893,	 0.013067 
0.595000,	 0.000046,	 1.000035,	 4.537324,	 -0.000821,	 300.000501,	 86132.336765,	 347.247893,	 0.013067 
0.605000,	 0.000046,	 1.000035,	 4.537324,	 -0.000821,	 300.000501,	 86132.336765,	 347.247893,	 0.013067 
0.615000,	 0.000046,	 1.000035,	 4.537324,	 -0.000821,	 300.000501,	 86132.336765,	 347.247893,	 0.013067 
0.625000,	 0.000046,	 1.000035,	 4.537324,	 -0.000821,	 300.000501,	 86132.336765,	 347.247893,	 0.013067 
0.635000,	 0.000046,	 1.000035,	 4.537324,	 -0.000821,	 300.000501,	 86132.336765,	 347.247893,	 0.013067 
0.645000,	 0.000046,	 1.000035,	 4.537324,	 -0.000821,	 300.000501,	 86132.336765,	 347.247893,	 0.013067 
0.655000,	 0.000046,	 1.000035,	 4.537324,	 -0.000821,	 300.000501,	 86132.336765,	 347.247893,	 0.013067 
0.665000,	 0.000046,	 1.000035,	 4.537324,	 -0.000821,	 300.000501,	 86132.336765,	 347.247893,	 0.013067 
0.675000,	 0.000046,	 1.000035,	 4.537324,	 -0.000821,	 300.000501,	 86132.336765,	 347.247893,	 0.013067 
0.685000,	 0.000046,	 1.000035,	 4.537324,	 -0.000821,	 300.000501,	 86132.336765,	 347.247893,	 0.013067 
0.695000,	 0.000046,	 1.000035,	 4.537324,	 -0.000821,	 300.000501,	 86132.336765,	 347.247893,	 0.013067 
0.705000,	 0.000046,	 1.000035,	 4.537324,	 -0.000821,	 300.000501,	 86132.336765,	 347.247893,	 0.013067 
0.715000,	 0.000046,	 1.000035,	 4.537324,	 -0.000821,	 300.000501,	 86132.336765,	 347.247893,	 0.013067 
0.725000,	 0.000046,	 1.000035,	 4.537324,	 -0.000821,	 300.000501,	 86132.336765,	 347.247893,	 0.013067 
0.735000,	 0.000046,	 1.000035,	 4.537324,	 -0.000821,	 300.000501,	 86132.336765,	 347.247893,	 0.013067 
0.745000,	 0.000046,	 1.000035,	 4.537324,	 -0.000821,	 300.000501,	 86132.336765,	 347.247893,	 0.013067 
0.755000,	 0.000046,	 1.000035,	 4.537324,	 -0.000821,	 300.000501,	 86132.336765,	 347.247893,	 0.013067 
0.765000,	 0.000046,	 1.000035,	 4.537324,	 -0.000821,	 300.000501,	 86132.336765,	 347.247893,	 0.013067 
0.775000,	 0.000046,	 1.000035,	 4.537324,	 -0.000821,	 300.000501,	 86132.336765,	 347.247893,	 0.013067 
0.785000,	 0.000046,	 1.000035,	 4.537324,	 -0.000821,	 300.000501,	 86132.336765,	 347.247893,	 0.013067 
0.795000,	 0.000046,	 1.000035,	 4.537324,	 -0.000821,	 300.000501,	 86132.336765,	 347.247893,	 0.013067 
0.805000,	 0.000046,	 1.000035,	 4.537324,	 -0.000821,	 300.000501,	 86132.336765,	 347.247893,	 0.013067 
0.815000,	 0.000046,	 1.000035,	 4.537324,	 -0.000821,	 300.000501,	 86132.336765,	 347.247893,	 0.013067 
0.825000,	 0.000046,	 1.000035,	 4.537324,	 -0.000821,	 300.000501,	 86132.336765,	 347.247893,	 0.013067 
0.835000,	 0.000046,	 1.000035,	 4.537324,	 -0.000821,	 300.000501,	 86132.336765,	 347.247893,	 0.013067 
0.845000,	 0.000046,	 1.000035,	 4.537324,	 -0.000821,	 300.000501,	 86132.336765,	 347.247893,	 0.013067 
0.855000,	 0.000046,	 1.000035,	 4.537324,	 -0.000821,	 300.000501,	 86132.336765,	 347.247893,	 0.013067 
0.865000,	 0.000046,	 1.000035,	 4.537324,	 -0.000821,	 300.000501,	 86132.336765,	 347.247893,	 0.013067 
0.875000,	 0.000046,	 1.000035,	 4.537324,	 -0.000821,	 300.000501,	 86132.336765,	 347.247893,	 0.013067 
0.885000,	 0.000046,	 1.000035,	 4.537324,	 -0.000821,	 300.000501,	 86132.336765,	 347.247893,	 0.013067 
0.895000,	 0.000046,	 1.000035,	 4.537324,	 -0.000821,	 300.000501,	 86132.336765,	 347.247893,	 0.013067 
0.905000,	 0.000046,	 1.000035,	 4.537324,	 -0.000821,	 300.000501,	 86132.336765,	 347.247893,	 0.013067 
0.915000,	 0.000046,	 1.000035,	 4.537324,	 -0.000821,	 300.000501,	 86132.336765,	 347.247893,	 0.013067 
0.925000,	 0.000046,	 1.000035,	 4.537324,	 -0.000821,	 300.000501,	 86132.336765,	 347.247893,	 0.013067 
0.935000,	 0.000046,	 1.000035,	 4.537324,	 -0.000821,	 300.000501,	 86132.336765,	 347.247893,	 0.013067 
0.945000,	 0.000046,	 1.000035,	 4.537324,	 -0.000821,	 300.000501,	 86132.336765,	 347.247893,	 0.013067 
0.955000,	 0.000046,	 1.000035,	 4.537324,	 -0.000821,	 300.000501,	 86132.336765,	 347.247893,	 0.013067 
0.965000,	 0.000046,	 1.000035,	 4.537324,	 -0.000821,	 300.000501,	 86132.336765,	 347.247893,	 0.013067 
0.975000,	 0.000046,	 1.000035,	 4.537324,	 -0.000821,	 300.000501,	 86132.336765,	 347.247893,	 0.013067 
0.985000,	 0.000046,	 1.000035,	 4.537324,	 -0.000821,	 300.000501,	 86132.336765,	 347.247893,	 0.013067 
0.995000,	 0.000046,	 1.000035,	 4.537324,	 -0.000821,	 300.000501,	 86132.336765,	 347.247893,	 0.013067 
0.005000,	 0.000079,	 1.000000,	 10.000000,	 0.000000,	 300.000000,	 86129.212707,	 347.247603,	 0.028798 
0.015000,	 0.000079,	 1.000000,	 10.000000,	 -0.000000,	 300.000000,	 86129.212707,	 347.247603,	 0.028798 
0.025000,	 0.000079,	 1.000000,	 10.000000,	 0.000000,	 300.000000,	 86129.212709,	 347.247603,	 0.028798 
0.035000,	 0.000079,	 1.000000,	 10.000000,	 0.000000,	 300.000000,	 86129.212713,	 347.247603,	 0.028798 
0.045000,	 0.000079,	 1.000000,	 10.000000,	 -0.000000,	 300.000000,	 86129.212729,	 347.247603,	 0.028798 
0.055000,	 0.000079,	 1.000000,	 10.000000,	 0.000000,	 300.000000,	 86129.212787,	 347.247603,	 0.028798 
0.065000,	 0.000079,	 1.000000,	 9.999999,	 0.000000,	 300.000000,	 86129.212988,	 347.247603,	 0.028798 
0.075000,	 0.000079,	 1.000000,	 9.999996,	 0.000000,	 300.000000,	 86129.213634,	 347.247603,	 0.028798 
0.085000,	 0.000079,	 1.000000,	 9.999986,	 0.000000,	 300.000000,	 86129.215576,	 347.247603,	 0.028798 
0.095000,	 0.000079,	 1.000000,	 9.999958,	 0.000000,	 300.000001,	 86129.221002,	 347.247603,	 0.028798 
0.105000,	 0.000079,	 1.000000,	 9.999879,	 0.000001,	 300.000002,	 86129.235010,	 347.247604,	 0.028798 
0.115000,	 0.000079,	 1.000001,	 9.999664,	 0.000002,	 300.000005,	 86129.268226,	 347.247606,	 0.028797 
0.125000,	 0.000079,	 1.000001,	 9.999083,	 0.000007,	 300.000013,	 86129.340011,	 347.247611,	 0.028795 
0.135000,	 0.000079,	 1.000003,	 9.997524,	 0.000025,	 300.000036,	 86129.480212,	 347.247624,	 0.028791 
0.145000,	 0.000079,	 1.000006,	 9.993321,	 0.000079,	 300.000099,	 86129.725380,	 347.247660,	 0.028779 
0.155000,	 0.000079,	 1.000009,	 9.982064,	 0.000237,	 300.000266,	 86130.105963,	 347.247757,	 0.028746 
0.165000,	 0.000079,	 1.000014,	 9.952765,	 0.000676,	 300.000693,	 86130.629024,	 347.248004,	 0.028662 
0.175000,	 0.000079,	 1.000018,	 9.880555,	 0.001837,	 300.001692,	 86131.278111,	 347.248582,	 0.028454 
0.185000,	 0.000079,	 1.000021,	 9.716368,	 0.004851,	 300.003685,	 86132.069397,	 347.249736,	 0.027981 
0.195000,	 0.000079,	 1.000024,	 9.381838,	 0.012871,	 300.006607,	 86133.189413,	 347.251427,	 0.027017 
0.205000,	 0.000079,	 1.000048,	 8.801584,	 0.036109,	 300.008006,	 86135.652052,	 347.252236,	 0.025347 
0.215000,	 0.000079,	 1.000076,	 8.041858,	 0.013332,	 299.994286,	 86134.112442,	 347.244296,	 0.023159 
0.225000,	 0.000079,	 1.000071,	 7.506377,	 0.004155,	 299.994643,	 86133.762027,	 347.244503,	 0.021617 
0.235000,	 0.000079,	 1.000058,	 7.211754,	 0.000923,	 299.997141,	 86133.345017,	 347.245949,	 0.020768 
0.245000,	 0.000079,	 1.000046,	 7.070800,	 -0.000293,	 299.998792,	 86132.870336,	 347.246904,	 0.020362 
0.255000,	 0.000079,	 1.000039,	 7.009997,	 -0.000761,	 299.999582,	 86132.416846,	 347.247361,	 0.020187 
0.265000,	 0.000079,	 1.000033,	 6.985723,	 -0.000937,	 299.999904,	 86132.042952,	 347.247547,	 0.020117 
0.275000,	 0.000079,	 1.000030,	 6.976553,	 -0.001001,	 300.000023,	 86131.773098,	 347.247616,	 0.020091 
0.285000,	 0.000079,	 1.000028,	 6.973199,	 -0.001023,	 300.000065,	 86131.600744,	 347.247641,	 0.020081 
0.295000,	 0.000079,	 1.000026,	 6.971985,	 -0.001030,	 300.000080,	 86131.502324,	 347.247649,	 0.020078 
0.305000,	 0.000079,	 1.000026,	 6.971543,	 -0.001032,	 300.000085,	 86131.451599,	 347.247652,	 0.020077 
0.315000,	 0.000079,	 1.000025,	 6.971381,	 -0.001032,	 300.000087,	 86131.427802,	 347.247653,	 0.020076 
0.325000,	 0.000079,	 1.000025,	 6.971322,	 -0.001032,	 300.000088,	 86131.417565,	 347.247654,	 0.020076 
0.335000,	 0.000079,	 1.000025,	 6.971301,	 -0.001032,	 300.000088,	 86131.413500,	 347.247654,	 0.020076 
0.345000,	 0.000079,	 1.000025,	 6.971294,	 -0.001032,	 300.000088,	 86131.412002,	 347.247654,	 0.020076 
0.355000,	 0.000079,	 1.000025,	 6.971291,	 -0.001032,	 300.000088,	 86131.411487,	 347.247654,	 0.020076 
0.365000,	 0.000079,	 1.000025,	 6.971290,	 -0.001032,	 300.000088,	 86131.411322,	 347.247654,	 0.020076 
0.375000,	 0.000079,	 1.000025,	 6.971290,	 -0.001032,	 300.000088,	 86131.411271,	 347.247654,	 0.020076 
0.385000,	 0.000079,	 1.000025,	 6.971290,	 -0.001032,	 300.000088,	 86131.411257,	 347.247654,	 0.020076 
0.395000,	 0.000079,	 1.000025,	 6.971290,	 -0.001032,	 300.000088,	 86131.411253,	 347.247654,	 0.020076 
0.405000,	 0.000079,	 1.000025,	 6.971290,	 -0.001032,	 300.000088,	 86131.411252,	 347.247654,	 0.020076 
0.415000,	 0.000079,	 1.000025,	 6.971290,	 -0.001032,	 300.000088,	 86131.411252,	 347.247654,	 0.020076 
0.425000,	 0.000079,	 1.000025,	 6.971290,	 -0.001032,	 300.000088,	 86131.411252,	 347.247654,	 0.020076 
0.435000,	 0.000079,	 1.000025,	 6.971290,	 -0.001032,	 300.000088,	 86131.411252,	 347.247654,	 0.020076 
0.445000,	 0.000079,	 1.000025,	 6.971290,	 -0.001032,	 300.000088,	 86131.411252,	 347.247654,	 0.020076 
0.455000,	 0.000079,	 1.000025,	 6.971290,	 -0.001032,	 300.000088,	 86131.411252,	 347.247654,	 0.020076 
0.465000,	 0.000079,	 1.000025,	 6.971290,	 -0.001032,	 300.000088,	 86131.411252,	 347.247654,	 0.020076 
0.475000,	 0.000079,	 1.000025,	 6.971290,	 -0.001032,	 300.000088,	 86131.411252,	 347.247654,	 0.020076 
0.485000,	 0.000079,	 1.000025,	 6.971290,	 -0.001032,	 300.000088,	 86131.411252,	 347.247654,	 0.020076 
0.495000,	 0.000079,	 1.000025,	 6.971290,	 -0.001032,	 300.000088,	 86131.411252,	 347.247654,	 0.020076 
0.505000,	 0.000079,	 1.000025,	 6.971290,	 -0.001032,	 300.000088,	 86131.411252,	 347.247654,	 0.020076 
0.515000,	 0.000079,	 1.000025,	 6.971290,	 -0.001032,	 300.000088,	 86131.411252,	 347.247654,	 0.020076 
0.525000,	 0.000079,	 1.000025,	 6.971290,	 -0.001032,	 300.000088,	 86131.411252,	 347.247654,	 0.020076 
0.535000,	 0.000079,	 1.000025,	 6.971290,	 -0.001032,	 300.000088,	 86131.411252,	 347.247654,	 0.020076 
0.545000,	 0.000079,	 1.000025,	 6.971290,	 -0.001032,	 300.000088,	 86131.411252,	 347.247654,	 0.020076 
0.555000,	 0.000079,	 1.000025,	 6.971290,	 -0.001032,	 300.000088,	 86131.411252,	 347.247654,	 0.020076 
0.565000,	 0.000079,	 1.000025,	 6.971290,	 -0.001032,	 300.000088,	 86131.411252,	 347.247654,	 0.020076 
0.575000,	 0.000079,	 1.000025,	 6.971290,	 -0.001032,	 300.000088,	 86131.411252,	 347.247654,	 0.020076 
0.585000,	 0.000079,	 1.000025,	 6.971290,	 -0.001032,	 300.000088,	 86131.411252,	 347.247654,	 0.020076 
0.595000,	 0.000079,	 1.000025,	 6.971290,	 -0.001032,	 300.000088,	 86131.411252,	 347.247654,	 0.020076 
0.605000,	 0.000079,	 1.000025,	 6.971290,	 -0.001032,	 300.000088,	 86131.411252,	 347.247654,	 0.020076 
0.615000,	 0.000079,	 1.000025,	 6.971290,	 -0.001032,	 300.000088,	 86131.411252,	 347.247654,	 0.020076 
0.625000,	 0.000079,	 1.000025,	 6.971290,	 -0.001032,	 300.000088,	 86131.411252,	 347.247654,	 0.020076 
0.635000,	 0.000079,	 1.000025,	 6.971290,	 -0.001032,	 300.000088,	 86131.411252,	 347.247654,	 0.020076 
0.645000,	 0.000079,	 1.000025,	 6.971290,	 -0.001032,	 300.000088,	 86131.411252,	 347.247654,	 0.020076 
0.655000,	 0.000079,	 1.000025,	 6.971290,	 -0.001032,	 300.000088,	 86131.411252,	 347.247654,	 0.020076 
0.665000,	 0.000079,	 1.000025,	 6.971290,	 -0.001032,	 300.000088,	 86131.411252,	 347.247654,	 0.020076 
0.675000,	 0.000079,	 1.000025,	 6.971290,	 -0.001032,	 300.000088,	 86131.411252,	 347.247654,	 0.020076 
0.685000,	 0.000079,	 1.000025,	 6.971290,	 -0.001032,	 300.000088,	 86131.411252,	 347.247654,	 0.020076 
0.695000,	 0.000079,	 1.000025,	 6.971290,	 -0.001032,	 300.000088,	 86131.411252,	 347.247654,	 0.020076 
0.705000,	 0.000079,	 1.000025,	 6.971290,	 -0.001032,	 300.000088,	 86131.411252,	 347.247654,	 0.020076 
0.715000,	 0.000079,	 1.000025,	 6.971290,	 -0.001032,	 300.000088,	 86131.411252,	 347.247654,	 0.020076 
0.725000,	 0.000079,	 1.000025,	 6.971290,	 -0.001032,	 300.000088,	 86131.411252,	 347.247654,	 0.020076 
0.735000,	 0.000079,	 1.000025,	 6.971290,	 -0.001032,	 300.000088,	 86131.411252,	 347.247654,	 0.020076 
0.745000,	 0.000079,	 1.000025,	 6.971290,	 -0.001032,	 300.000088,	 86131.411252,	 347.247654,	 0.020076 
0.755000,	 0.000079,	 1.000025,	 6.971290,	 -0.001032,	 300.000088,	 86131.411252,	 347.247654,	 0.020076 
0.765000,	 0.000079,	 1.000025,	 6.971290,	 -0.001032,	 300.000088,	 86131.411252,	 347.247654,	 0.020076 
0.775000,	 0.000079,	 1.000025,	 6.971290,	 -0.001032,	 300.000088,	 86131.411252,	 347.247654,	 0.020076 
0.785000,	 0.000079,	 1.000025,	 6.971290,	 -0.001032,	 300.000088,	 86131.411252,	 347.247654,	 0.020076 