TITLE = "Final State"
VARIABLES = "X", "Y", "rho", "u", "v", "e", "p", "c", "M"
ZONE I=200, J=200, DATAPACKING=POINT
0.012500,	 0.000018,	 1.000296,	 0.989672,	 -0.002136,	 179.076475,	 71.455831,	 10.000429,	 0.098963 
0.037500,	 0.000018,	 1.000331,	 0.987661,	 -0.002340,	 179.075923,	 71.458886,	 10.000469,	 0.098762 
0.062500,	 0.000018,	 1.000340,	 0.986153,	 -0.002394,	 179.074820,	 71.459698,	 10.000480,	 0.098611 
0.087500,	 0.000018,	 1.000343,	 0.984820,	 -0.002416,	 179.073660,	 71.459980,	 10.000484,	 0.098478 
0.112500,	 0.000018,	 1.000344,	 0.983546,	 -0.002429,	 179.072501,	 71.460094,	 10.000487,	 0.098350 
0.137500,	 0.000018,	 1.000344,	 0.982275,	 -0.002442,	 179.071345,	 71.460157,	 10.000489,	 0.098223 
0.162500,	 0.000018,	 1.000345,	 0.980972,	 -0.002458,	 179.070181,	 71.460220,	 10.000493,	 0.098093 
0.187500,	 0.000018,	 1.000345,	 0.979612,	 -0.002479,	 179.068998,	 71.460304,	 10.000497,	 0.097957 
0.212500,	 0.000018,	 1.000345,	 0.978178,	 -0.002505,	 179.067784,	 71.460422,	 10.000502,	 0.097813 
0.237500,	 0.000018,	 1.000346,	 0.976652,	 -0.002538,	 179.066528,	 71.460580,	 10.000509,	 0.097661 
0.262500,	 0.000018,	 1.000348,	 0.975018,	 -0.002578,	 179.065220,	 71.460785,	 10.000517,	 0.097497 
0.287500,	 0.000018,	 1.000349,	 0.973262,	 -0.002625,	 179.063848,	 71.461039,	 10.000526,	 0.097321 
0.312500,	 0.000018,	 1.000351,	 0.971367,	 -0.002680,	 179.062401,	 71.461344,	 10.000537,	 0.097132 
0.337500,	 0.000018,	 1.000354,	 0.969316,	 -0.002743,	 179.060868,	 71.461703,	 10.000550,	 0.096927 
0.362500,	 0.000018,	 1.000357,	 0.967090,	 -0.002816,	 179.059236,	 71.462119,	 10.000565,	 0.096704 
0.387500,	 0.000018,	 1.000360,	 0.964668,	 -0.002898,	 179.057491,	 71.462593,	 10.000581,	 0.096462 
0.412500,	 0.000018,	 1.000364,	 0.962026,	 -0.002992,	 179.055617,	 71.463127,	 10.000600,	 0.096197 
0.437500,	 0.000018,	 1.000368,	 0.959137,	 -0.003097,	 179.053599,	 71.463725,	 10.000621,	 0.095908 
0.462500,	 0.000018,	 1.000372,	 0.955970,	 -0.003215,	 179.051417,	 71.464389,	 10.000645,	 0.095591 
0.487500,	 0.000018,	 1.000377,	 0.952491,	 -0.003347,	 179.049051,	 71.465121,	 10.000672,	 0.095243 
0.512500,	 0.000018,	 1.000383,	 0.948657,	 -0.003496,	 179.046477,	 71.465925,	 10.000702,	 0.094860 
0.537500,	 0.000018,	 1.000388,	 0.944421,	 -0.003663,	 179.043670,	 71.466803,	 10.000736,	 0.094436 
0.562500,	 0.000018,	 1.000394,	 0.939726,	 -0.003851,	 179.040602,	 71.467759,	 10.000773,	 0.093966 
0.587500,	 0.000018,	 1.000400,	 0.934507,	 -0.004063,	 179.037241,	 71.468797,	 10.000816,	 0.093444 
0.612500,	 0.000018,	 1.000406,	 0.928685,	 -0.004304,	 179.033553,	 71.469918,	 10.000865,	 0.092861 
0.637500,	 0.000018,	 1.000412,	 0.922167,	 -0.004579,	 179.029502,	 71.471127,	 10.000920,	 0.092209 
0.662500,	 0.000018,	 1.000417,	 0.914839,	 -0.004895,	 179.025050,	 71.472425,	 10.000984,	 0.091476 
0.687500,	 0.000018,	 1.000422,	 0.906567,	 -0.005262,	 179.020160,	 71.473813,	 10.001058,	 0.090649 
0.712500,	 0.000018,	 1.000425,	 0.897183,	 -0.005692,	 179.014796,	 71.475291,	 10.001145,	 0.089710 
0.737500,	 0.000018,	 1.000426,	 0.886482,	 -0.006202,	 179.008931,	 71.476856,	 10.001248,	 0.088639 
0.762500,	 0.000018,	 1.000425,	 0.874205,	 -0.006816,	 179.002550,	 71.478499,	 10.001371,	 0.087411 
0.787500,	 0.000018,	 1.000418,	 0.860024,	 -0.007567,	 178.995663,	 71.480206,	 10.001523,	 0.085993 
0.812500,	 0.000018,	 1.000405,	 0.843512,	 -0.008498,	 178.988316,	 71.481950,	 10.001711,	 0.084341 
0.837500,	 0.000018,	 1.000382,	 0.824100,	 -0.009675,	 178.980611,	 71.483682,	 10.001948,	 0.082400 
0.862500,	 0.000018,	 1.000344,	 0.801010,	 -0.011184,	 178.972733,	 71.485320,	 10.002252,	 0.080091 
0.887500,	 0.000018,	 1.000284,	 0.773132,	 -0.013152,	 178.964979,	 71.486714,	 10.002648,	 0.077304 
0.912500,	 0.000018,	 1.000191,	 0.738800,	 -0.015753,	 178.957786,	 71.487568,	 10.003172,	 0.073873 
0.937500,	 0.000018,	 1.000047,	 0.695334,	 -0.019231,	 178.951721,	 71.487246,	 10.003873,	 0.069533 
0.962500,	 0.000018,	 0.999814,	 0.637929,	 -0.023909,	 178.947276,	 71.484082,	 10.004817,	 0.063807 
0.987500,	 0.000018,	 0.999398,	 0.556328,	 -0.030110,	 178.943604,	 71.472303,	 10.006073,	 0.055680 
1.012500,	 0.000018,	 0.998384,	 0.419528,	 -0.036963,	 178.928809,	 71.420465,	 10.007521,	 0.042084 
1.037500,	 0.000018,	 1.000267,	 0.032437,	 0.000149,	 179.043953,	 71.636458,	 10.013207,	 0.003239 
1.062500,	 0.000018,	 0.998742,	 0.022436,	 0.000013,	 178.987500,	 71.504808,	 10.011636,	 0.002241 
1.087500,	 0.000018,	 0.998410,	 0.018791,	 0.000006,	 178.977190,	 71.476978,	 10.011350,	 0.001877 
1.112500,	 0.000018,	 0.998243,	 0.016747,	 0.000004,	 178.972735,	 71.463264,	 10.011226,	 0.001673 
1.137500,	 0.000018,	 0.998136,	 0.015377,	 0.000004,	 178.970212,	 71.454567,	 10.011156,	 0.001536 
1.162500,	 0.000018,	 0.998058,	 0.014368,	 0.000003,	 178.968578,	 71.448350,	 10.011111,	 0.001435 
1.187500,	 0.000018,	 0.997997,	 0.013581,	 0.000003,	 178.967429,	 71.443581,	 10.011079,	 0.001357 
1.212500,	 0.000018,	 0.997949,	 0.012942,	 0.000002,	 178.966577,	 71.439750,	 10.011056,	 0.001293 
1.237500,	 0.000018,	 0.997908,	 0.012409,	 0.000002,	 178.965921,	 71.436571,	 10.011038,	 0.001240 
1.262500,	 0.000018,	 0.997873,	 0.011955,	 0.000002,	 178.965402,	 71.433870,	 10.011023,	 0.001194 
1.287500,	 0.000018,	 0.997843,	 0.011560,	 0.000002,	 178.964984,	 71.431531,	 10.011012,	 0.001155 
1.312500,	 0.000018,	 0.997816,	 0.011213,	 0.000002,	 178.964643,	 71.429477,	 10.011002,	 0.001120 
1.337500,	 0.000018,	 0.997792,	 0.010905,	 0.000002,	 178.964363,	 71.427652,	 10.010994,	 0.001089 
1.362500,	 0.000018,	 0.997770,	 0.010628,	 0.000001,	 178.964132,	 71.426015,	 10.010988,	 0.001062 
1.387500,	 0.000018,	 0.997751,	 0.010377,	 0.000001,	 178.963943,	 71.424535,	 10.010983,	 0.001037 
1.412500,	 0.000018,	 0.997733,	 0.010148,	 0.000001,	 178.963789,	 71.423187,	 10.010979,	 0.001014 
1.437500,	 0.000018,	 0.997716,	 0.009939,	 0.000001,	 178.963666,	 71.421954,	 10.010975,	 0.000993 
1.462500,	 0.000018,	 0.997701,	 0.009746,	 0.000001,	 178.963569,	 71.420819,	 10.010973,	 0.000974 
1.487500,	 0.000018,	 0.997687,	 0.009567,	 0.000001,	 178.963496,	 71.419771,	 10.010971,	 0.000956 
1.512500,	 0.000018,	 0.997673,	 0.009401,	 0.000001,	 178.963445,	 71.418799,	 10.010969,	 0.000939 
1.537500,	 0.000018,	 0.997661,	 0.009246,	 0.000001,	 178.963412,	 71.417896,	 10.010968,	 0.000924 
1.562500,	 0.000018,	 0.997649,	 0.009101,	 0.000001,	 178.963398,	 71.417053,	 10.010968,	 0.000909 
1.587500,	 0.000018,	 0.997638,	 0.008965,	 0.000001,	 178.963399,	 71.416265,	 10.010968,	 0.000895 
1.612500,	 0.000018,	 0.997628,	 0.008836,	 0.000001,	 178.963414,	 71.415528,	 10.010968,	 0.000883 
1.637500,	 0.000018,	 0.997618,	 0.008716,	 0.000001,	 178.963443,	 71.414835,	 10.010969,	 0.000871 
1.662500,	 0.000018,	 0.997609,	 0.008601,	 0.000001,	 178.963484,	 71.414185,	 10.010971,	 0.000859 
1.687500,	 0.000018,	 0.997600,	 0.008493,	 0.000001,	 178.963536,	 71.413572,	 10.010972,	 0.000848 
1.712500,	 0.000018,	 0.997591,	 0.008390,	 0.000001,	 178.963597,	 71.412995,	 10.010974,	 0.000838 
1.737500,	 0.000018,	 0.997583,	 0.008292,	 0.000001,	 178.963667,	 71.412451,	 10.010976,	 0.000828 
1.762500,	 0.000018,	 0.997576,	 0.008199,	 0.000001,	 178.963743,	 71.411938,	 10.010978,	 0.000819 
1.787500,	 0.000018,	 0.997568,	 0.008110,	 0.000001,	 178.963826,	 71.411453,	 10.010980,	 0.000810 
1.812500,	 0.000018,	 0.997562,	 0.008025,	 0.000001,	 178.963914,	 71.410995,	 10.010983,	 0.000802 
1.837500,	 0.000018,	 0.997555,	 0.007944,	 0.000001,	 178.964006,	 71.410562,	 10.010985,	 0.000793 
1.862500,	 0.000018,	 0.997549,	 0.007866,	 0.000001,	 178.964099,	 71.410152,	 10.010988,	 0.000786 
1.887500,	 0.000018,	 0.997543,	 0.007791,	 0.000001,	 178.964195,	 71.409765,	 10.010991,	 0.000778 
1.912500,	 0.000018,	 0.997537,	 0.007720,	 0.000001,	 178.964290,	 71.409399,	 10.010993,	 0.000771 
1.937500,	 0.000018,	 0.997532,	 0.007651,	 0.000001,	 178.964384,	 71.409053,	 10.010996,	 0.000764 
1.962500,	 0.000018,	 0.997527,	 0.007585,	 0.000001,	 178.964476,	 71.408725,	 10.010998,	 0.000758 
1.987500,	 0.000018,	 0.997522,	 0.007522,	 0.000001,	 178.964564,	 71.408416,	 10.011001,	 0.000751 
2.012500,	 0.000018,	 0.997517,	 0.007460,	 0.000001,	 178.964648,	 71.408124,	 10.011003,	 0.000745 
2.037500,	 0.000018,	 0.997513,	 0.007402,	 0.000001,	 178.964725,	 71.407848,	 10.011005,	 0.000739 
2.062500,	 0.000018,	 0.997509,	 0.007345,	 0.000001,	 178.964795,	 71.407588,	 10.011007,	 0.000734 
2.087500,	 0.000018,	 0.997505,	 0.007290,	 0.000001,	 178.964857,	 71.407343,	 10.011009,	 0.000728 
2.112500,	 0.000018,	 0.997502,	 0.007237,	 0.000001,	 178.964908,	 71.407112,	 10.011011,	 0.000723 
2.137500,	 0.000018,	 0.997498,	 0.007186,	 0.000001,	 178.964950,	 71.406896,	 10.011012,	 0.000718 
2.162500,	 0.000018,	 0.997495,	 0.007137,	 0.000001,	 178.964979,	 71.406692,	 10.011013,	 0.000713 
2.187500,	 0.000018,	 0.997493,	 0.007089,	 0.000001,	 178.964996,	 71.406501,	 10.011013,	 0.000708 
2.212500,	 0.000018,	 0.997490,	 0.007043,	 0.000001,	 178.964998,	 71.406322,	 10.011013,	 0.000704 
2.237500,	 0.000018,	 0.997488,	 0.006999,	 0.000001,	 178.964986,	 71.406156,	 10.011013,	 0.000699 
2.262500,	 0.000018,	 0.997486,	 0.006956,	 0.000001,	 178.964959,	 71.406000,	 10.011012,	 0.000695 
2.287500,	 0.000018,	 0.997484,	 0.006914,	 0.000001,	 178.964914,	 71.405856,	 10.011011,	 0.000691 
2.312500,	 0.000018,	 0.997483,	 0.006874,	 0.000001,	 178.964853,	 71.405722,	 10.011009,	 0.000687 
2.337500,	 0.000018,	 0.997481,	 0.006835,	 0.000001,	 178.964774,	 71.405598,	 10.011007,	 0.000683 
2.362500,	 0.000018,	 0.997480,	 0.006797,	 0.000001,	 178.964676,	 71.405484,	 10.011004,	 0.000679 
2.387500,	 0.000018,	 0.997479,	 0.006761,	 0.000001,	 178.964560,	 71.405380,	 10.011001,	 0.000675 
2.412500,	 0.000018,	 0.997479,	 0.006725,	 0.000001,	 178.964424,	 71.405285,	 10.010997,	 0.000672 
2.437500,	 0.000018,	 0.997479,	 0.006691,	 0.000001,	 178.964268,	 71.405199,	 10.010993,	 0.000668 
2.462500,	 0.000018,	 0.997478,	 0.006658,	 0.000001,	 178.964092,	 71.405121,	 10.010988,	 0.000665 
2.487500,	 0.000018,	 0.997479,	 0.006626,	 0.000001,	 178.963896,	 71.405052,	 10.010982,	 0.000662 
2.512500,	 0.000018,	 0.997479,	 0.006594,	 0.000000,	 178.963680,	 71.404991,	 10.010976,	 0.000659 
2.537500,	 0.000018,	 0.997479,	 0.006564,	 0.000000,	 178.963444,	 71.404938,	 10.010970,	 0.000656 
2.562500,	 0.000018,	 0.997480,	 0.006535,	 0.000000,	 178.963188,	 71.404892,	 10.010963,	 0.000653 
2.587500,	 0.000018,	 0.997481,	 0.006507,	 0.000000,	 178.962912,	 71.404854,	 10.010955,	 0.000650 
2.612500,	 0.000018,	 0.997482,	 0.006479,	 0.000000,	 178.962616,	 71.404822,	 10.010947,	 0.000647 
2.637500,	 0.000018,	 0.997484,	 0.006453,	 0.000000,	 178.962301,	 71.404798,	 10.010938,	 0.000645 
2.662500,	 0.000018,	 0.997486,	 0.006427,	 0.000000,	 178.961968,	 71.404780,	 10.010929,	 0.000642 
2.687500,	 0.000018,	 0.997487,	 0.006402,	 0.000000,	 178.961615,	 71.404768,	 10.010919,	 0.000640 
2.712500,	 0.000018,	 0.997489,	 0.006378,	 0.000000,	 178.961246,	 71.404763,	 10.010908,	 0.000637 
2.737500,	 0.000018,	 0.997491,	 0.006354,	 0.000000,	 178.960859,	 71.404763,	 10.010898,	 0.000635 
2.762500,	 0.000018,	 0.997494,	 0.006332,	 0.000000,	 178.960456,	 71.404770,	 10.010886,	 0.000632 
2.787500,	 0.000018,	 0.997496,	 0.006310,	 0.000000,	 178.960037,	 71.404781,	 10.010875,	 0.000630 
2.812500,	 0.000018,	 0.997499,	 0.006289,	 0.000000,	 178.959603,	 71.404798,	 10.010862,	 0.000628 
2.837500,	 0.000018,	 0.997502,	 0.006268,	 0.000000,	 178.959156,	 71.404820,	 10.010850,	 0.000626 
2.862500,	 0.000018,	 0.997505,	 0.006248,	 0.000000,	 178.958695,	 71.404847,	 10.010837,	 0.000624 
2.887500,	 0.000018,	 0.997508,	 0.006229,	 0.000000,	 178.958222,	 71.404879,	 10.010824,	 0.000622 
2.912500,	 0.000018,	 0.997511,	 0.006211,	 0.000000,	 178.957739,	 71.404915,	 10.010810,	 0.000620 
2.937500,	 0.000018,	 0.997514,	 0.006193,	 0.000000,	 178.957245,	 71.404955,	 10.010796,	 0.000619 
2.962500,	 0.000018,	 0.997518,	 0.006175,	 0.000000,	 178.956742,	 71.405000,	 10.010782,	 0.000617 
2.987500,	 0.000018,	 0.997521,	 0.006159,	 0.000000,	 178.956232,	 71.405048,	 10.010768,	 0.000615 
3.012500,	 0.000018,	 0.997525,	 0.006143,	 0.000000,	 178.955714,	 71.405100,	 10.010754,	 0.000614 
3.037500,	 0.000018,	 0.997529,	 0.006127,	 0.000000,	 178.955190,	 71.405155,	 10.010739,	 0.000612 
3.062500,	 0.000018,	 0.997532,	 0.006112,	 0.000000,	 178.954662,	 71.405214,	 10.010724,	 0.000611 
3.087500,	 0.000018,	 0.997536,	 0.006097,	 0.000000,	 178.954130,	 71.405276,	 10.010709,	 0.000609 
3.112500,	 0.000018,	 0.997540,	 0.006083,	 0.000000,	 178.953595,	 71.405341,	 10.010694,	 0.000608 
3.137500,	 0.000018,	 0.997544,	 0.006070,	 0.000000,	 178.953058,	 71.405408,	 10.010679,	 0.000606 
3.162500,	 0.000018,	 0.997548,	 0.006057,	 0.000000,	 178.952521,	 71.405478,	 10.010664,	 0.000605 
3.187500,	 0.000018,	 0.997552,	 0.006045,	 0.000000,	 178.951984,	 71.405551,	 10.010649,	 0.000604 
3.212500,	 0.000018,	 0.997556,	 0.006032,	 0.000000,	 178.951448,	 71.405625,	 10.010634,	 0.000603 
3.237500,	 0.000018,	 0.997560,	 0.006021,	 0.000000,	 178.950915,	 71.405702,	 10.010619,	 0.000601 
3.262500,	 0.000018,	 0.997564,	 0.006010,	 0.000000,	 178.950384,	 71.405780,	 10.010605,	 0.000600 
3.287500,	 0.000018,	 0.997568,	 0.005999,	 0.000000,	 178.949857,	 71.405860,	 10.010590,	 0.000599 
3.312500,	 0.000018,	 0.997572,	 0.005989,	 0.000000,	 178.949336,	 71.405941,	 10.010575,	 0.000598 
3.337500,	 0.000018,	 0.997576,	 0.005979,	 0.000000,	 178.948819,	 71.406024,	 10.010561,	 0.000597 
3.362500,	 0.000018,	 0.997580,	 0.005970,	 0.000000,	 178.948309,	 71.406107,	 10.010547,	 0.000596 
3.387500,	 0.000018,	 0.997584,	 0.005960,	 0.000000,	 178.947805,	 71.406192,	 10.010533,	 0.000595 
3.412500,	 0.000018,	 0.997588,	 0.005952,	 0.000000,	 178.947309,	 71.406277,	 10.010519,	 0.000595 
3.437500,	 0.000018,	 0.997592,	 0.005943,	 0.000000,	 178.946822,	 71.406363,	 10.010505,	 0.000594 
3.462500,	 0.000018,	 0.997596,	 0.005936,	 0.000000,	 178.946343,	 71.406449,	 10.010492,	 0.000593 
3.487500,	 0.000018,	 0.997600,	 0.005928,	 0.000000,	 178.945873,	 71.406536,	 10.010478,	 0.000592 
3.512500,	 0.000018,	 0.997604,	 0.005921,	 0.000000,	 178.945412,	 71.406622,	 10.010466,	 0.000591 
3.537500,	 0.000018,	 0.997607,	 0.005914,	 0.000000,	 178.944962,	 71.406709,	 10.010453,	 0.000591 
3.562500,	 0.000018,	 0.997611,	 0.005907,	 0.000000,	 178.944522,	 71.406795,	 10.010441,	 0.000590 
3.587500,	 0.000018,	 0.997614,	 0.005901,	 0.000000,	 178.944093,	 71.406881,	 10.010429,	 0.000589 
3.612500,	 0.000018,	 0.997618,	 0.005895,	 0.000000,	 178.943674,	 71.406966,	 10.010417,	 0.000589 
3.637500,	 0.000018,	 0.997621,	 0.005889,	 0.000000,	 178.943267,	 71.407050,	 10.010406,	 0.000588 
3.662500,	 0.000018,	 0.997625,	 0.005884,	 0.000000,	 178.942871,	 71.407134,	 10.010394,	 0.000588 
3.687500,	 0.000018,	 0.997628,	 0.005879,	 0.000000,	 178.942486,	 71.407216,	 10.010384,	 0.000587 
3.712500,	 0.000018,	 0.997631,	 0.005874,	 0.000000,	 178.942113,	 71.407297,	 10.010373,	 0.000587 
3.737500,	 0.000018,	 0.997634,	 0.005869,	 0.000000,	 178.941751,	 71.407378,	 10.010363,	 0.000586 
3.762500,	 0.000018,	 0.997638,	 0.005865,	 0.000000,	 178.941401,	 71.407456,	 10.010353,	 0.000586 
3.787500,	 0.000018,	 0.997640,	 0.005861,	 0.000000,	 178.941063,	 71.407533,	 10.010344,	 0.000585 
3.812500,	 0.000018,	 0.997643,	 0.005857,	 0.000000,	 178.940736,	 71.407608,	 10.010335,	 0.000585 
3.837500,	 0.000018,	 0.997646,	 0.005853,	 0.000000,	 178.940420,	 71.407682,	 10.010326,	 0.000585 
3.862500,	 0.000018,	 0.997649,	 0.005850,	 0.000000,	 178.940115,	 71.407754,	 10.010317,	 0.000584 
3.887500,	 0.000018,	 0.997651,	 0.005847,	 0.000000,	 178.939822,	 71.407823,	 10.010309,	 0.000584 
3.912500,	 0.000018,	 0.997654,	 0.005843,	 0.000000,	 178.939539,	 71.407890,	 10.010301,	 0.000584 
3.937500,	 0.000018,	 0.997656,	 0.005841,	 0.000000,	 178.939268,	 71.407955,	 10.010294,	 0.000583 
3.962500,	 0.000018,	 0.997659,	 0.005838,	 0.000000,	 178.939006,	 71.408018,	 10.010286,	 0.000583 
3.987500,	 0.000018,	 0.997661,	 0.005836,	 0.000000,	 178.938755,	 71.408078,	 10.010279,	 0.000583 
4.012500,	 0.000018,	 0.997663,	 0.005833,	 0.000000,	 178.938514,	 71.408136,	 10.010273,	 0.000583 
4.037500,	 0.000018,	 0.997665,	 0.005831,	 0.000000,	 178.938283,	 71.408190,	 10.010266,	 0.000583 
4.062500,	 0.000018,	 0.997667,	 0.005829,	 0.000000,	 178.938061,	 71.408242,	 10.010260,	 0.000582 
4.087500,	 0.000018,	 0.997669,	 0.005827,	 0.000000,	 178.937848,	 71.408292,	 10.010254,	 0.000582 
4.112500,	 0.000018,	 0.997671,	 0.005826,	 0.000000,	 178.937644,	 71.408338,	 10.010248,	 0.000582 
4.137500,	 0.000018,	 0.997672,	 0.005824,	 0.000000,	 178.937449,	 71.408381,	 10.010243,	 0.000582 
4.162500,	 0.000018,	 0.997674,	 0.005823,	 0.000000,	 178.937262,	 71.408421,	 10.010238,	 0.000582 
4.187500,	 0.000018,	 0.997676,	 0.005822,	 0.000000,	 178.937082,	 71.408458,	 10.010233,	 0.000582 
4.212500,	 0.000018,	 0.997677,	 0.005821,	 0.000000,	 178.936911,	 71.408492,	 10.010228,	 0.000581 
4.237500,	 0.000018,	 0.997678,	 0.005820,	 0.000000,	 178.936746,	 71.408522,	 10.010223,	 0.000581 
4.262500,	 0.000018,	 0.997680,	 0.005819,	 0.000000,	 178.936588,	 71.408550,	 10.010219,	 0.000581 
4.287500,	 0.000018,	 0.997681,	 0.005818,	 0.000000,	 178.936437,	 71.408573,	 10.010215,	 0.000581 
4.312500,	 0.000018,	 0.997682,	 0.005817,	 0.000000,	 178.936291,	 71.408594,	 10.010210,	 0.000581 
4.337500,	 0.000018,	 0.997683,	 0.005817,	 0.000000,	 178.936152,	 71.408610,	 10.010207,	 0.000581 
4.362500,	 0.000018,	 0.997684,	 0.005816,	 0.000000,	 178.936018,	 71.408624,	 10.010203,	 0.000581 
4.387500,	 0.000018,	 0.997685,	 0.005816,	 0.000000,	 178.935890,	 71.408633,	 10.010199,	 0.000581 
4.412500,	 0.000018,	 0.997685,	 0.005815,	 0.000000,	 178.935766,	 71.408639,	 10.010196,	 0.000581 
4.437500,	 0.000018,	 0.997686,	 0.005815,	 0.000000,	 178.935647,	 71.408642,	 10.010192,	 0.000581 
4.462500,	 0.000018,	 0.997687,	 0.005815,	 0.000000,	 178.935532,	 71.408640,	 10.010189,	 0.000581 
4.487500,	 0.000018,	 0.997687,	 0.005815,	 0.000000,	 178.935422,	 71.408635,	 10.010186,	 0.000581 
4.512500,	 0.000018,	 0.997688,	 0.005815,	 0.000000,	 178.935314,	 71.408627,	 10.010183,	 0.000581 
4.537500,	 0.000018,	 0.997688,	 0.005815,	 0.000000,	 178.935211,	 71.408614,	 10.010180,	 0.000581 
4.562500,	 0.000018,	 0.997689,	 0.005815,	 0.000000,	 178.935111,	 71.408598,	 10.010177,	 0.000581 
4.587500,	 0.000018,	 0.997689,	 0.005815,	 0.000000,	 178.935013,	 71.408578,	 10.010175,	 0.000581 
4.612500,	 0.000018,	 0.997689,	 0.005815,	 0.000000,	 178.934919,	 71.408555,	 10.010172,	 0.000581 
4.637500,	 0.000018,	 0.997689,	 0.005815,	 0.000000,	 178.934827,	 71.408527,	 10.010170,	 0.000581 
4.662500,	 0.000018,	 0.997689,	 0.005815,	 0.000000,	 178.934737,	 71.408496,	 10.010167,	 0.000581 
4.687500,	 0.000018,	 0.997689,	 0.005815,	 0.000000,	 178.934650,	 71.408461,	 10.010165,	 0.000581 
4.712500,	 0.000018,	 0.997689,	 0.005816,	 0.000000,	 178.934565,	 71.408422,	 10.010162,	 0.000581 
4.737500,	 0.000018,	 0.997689,	 0.005816,	 0.000000,	 178.934483,	 71.408379,	 10.010160,	 0.000581 
4.762500,	 0.000018,	 0.997689,	 0.005816,	 0.000000,	 178.934402,	 71.408332,	 10.010158,	 0.000581 
4.787500,	 0.000018,	 0.997689,	 0.005816,	 0.000000,	 178.934324,	 71.408281,	 10.010155,	 0.000581 
4.812500,	 0.000018,	 0.997688,	 0.005817,	 0.000000,	 178.934248,	 71.408227,	 10.010153,	 0.000581 
4.837500,	 0.000018,	 0.997688,	 0.005817,	 0.000000,	 178.934175,	 71.408168,	 10.010151,	 0.000581 
4.862500,	 0.000018,	 0.997687,	 0.005817,	 0.000000,	 178.934105,	 71.408105,	 10.010149,	 0.000581 
4.887500,	 0.000018,	 0.997687,	 0.005817,	 0.000000,	 178.934038,	 71.408039,	 10.010147,	 0.000581 
4.912500,	 0.000018,	 0.997686,	 0.005817,	 0.000000,	 178.933976,	 71.407970,	 10.010146,	 0.000581 
4.937500,	 0.000018,	 0.997685,	 0.005817,	 0.000000,	 178.933919,	 71.407899,	 10.010144,	 0.000581 
4.962500,	 0.000018,	 0.997685,	 0.005817,	 0.000000,	 178.933869,	 71.407827,	 10.010143,	 0.000581 
4.987500,	 0.000018,	 0.997684,	 0.005817,	 0.000000,	 178.933830,	 71.407761,	 10.010142,	 0.000581 
0.012500,	 0.000093,	 1.000297,	 0.989960,	 -0.002128,	 179.076795,	 71.455905,	 10.000430,	 0.098992 
0.037500,	 0.000093,	 1.000331,	 0.987985,	 -0.002335,	 179.076263,	 71.458927,	 10.000470,	 0.098794 
0.062500,	 0.000093,	 1.000340,	 0.986486,	 -0.002390,	 179.075165,	 71.459731,	 10.000480,	 0.098644 
0.087500,	 0.000093,	 1.000343,	 0.985156,	 -0.002412,	 179.074006,	 71.460010,	 10.000485,	 0.098511 
0.112500,	 0.000093,	 1.000344,	 0.983884,	 -0.002426,	 179.072847,	 71.460124,	 10.000487,	 0.098384 
0.137500,	 0.000093,	 1.000345,	 0.982612,	 -0.002438,	 179.071691,	 71.460188,	 10.000490,	 0.098257 
0.162500,	 0.000093,	 1.000345,	 0.981309,	 -0.002454,	 179.070527,	 71.460251,	 10.000493,	 0.098126 
0.187500,	 0.000093,	 1.000345,	 0.979949,	 -0.002475,	 179.069344,	 71.460337,	 10.000497,	 0.097990 
0.212500,	 0.000093,	 1.000346,	 0.978515,	 -0.002501,	 179.068131,	 71.460456,	 10.000503,	 0.097847 
0.237500,	 0.000093,	 1.000347,	 0.976989,	 -0.002533,	 179.066876,	 71.460618,	 10.000509,	 0.097694 
0.262500,	 0.000093,	 1.000348,	 0.975356,	 -0.002573,	 179.065569,	 71.460825,	 10.000517,	 0.097531 
0.287500,	 0.000093,	 1.000350,	 0.973601,	 -0.002619,	 179.064199,	 71.461082,	 10.000527,	 0.097355 
0.312500,	 0.000093,	 1.000352,	 0.971708,	 -0.002674,	 179.062755,	 71.461391,	 10.000538,	 0.097166 
0.337500,	 0.000093,	 1.000354,	 0.969658,	 -0.002737,	 179.061225,	 71.461754,	 10.000551,	 0.096961 
0.362500,	 0.000093,	 1.000357,	 0.967434,	 -0.002809,	 179.059595,	 71.462174,	 10.000566,	 0.096738 
0.387500,	 0.000093,	 1.000361,	 0.965014,	 -0.002891,	 179.057854,	 71.462652,	 10.000582,	 0.096496 
0.412500,	 0.000093,	 1.000364,	 0.962375,	 -0.002984,	 179.055985,	 71.463192,	 10.000601,	 0.096232 
0.437500,	 0.000093,	 1.000369,	 0.959489,	 -0.003088,	 179.053971,	 71.463796,	 10.000622,	 0.095943 
0.462500,	 0.000093,	 1.000373,	 0.956326,	 -0.003205,	 179.051794,	 71.464467,	 10.000646,	 0.095627 
0.487500,	 0.000093,	 1.000378,	 0.952849,	 -0.003337,	 179.049434,	 71.465207,	 10.000673,	 0.095279 
0.512500,	 0.000093,	 1.000384,	 0.949019,	 -0.003484,	 179.046866,	 71.466020,	 10.000703,	 0.094896 
0.537500,	 0.000093,	 1.000389,	 0.944787,	 -0.003650,	 179.044067,	 71.466908,	 10.000737,	 0.094472 
0.562500,	 0.000093,	 1.000395,	 0.940096,	 -0.003836,	 179.041006,	 71.467876,	 10.000775,	 0.094003 
0.587500,	 0.000093,	 1.000401,	 0.934880,	 -0.004047,	 179.037652,	 71.468927,	 10.000818,	 0.093481 
0.612500,	 0.000093,	 1.000407,	 0.929062,	 -0.004286,	 179.033973,	 71.470063,	 10.000867,	 0.092899 
0.637500,	 0.000093,	 1.000413,	 0.922546,	 -0.004559,	 179.029930,	 71.471290,	 10.000922,	 0.092247 
0.662500,	 0.000093,	 1.000419,	 0.915221,	 -0.004872,	 179.025488,	 71.472608,	 10.000986,	 0.091514 
0.687500,	 0.000093,	 1.000424,	 0.906950,	 -0.005236,	 179.020606,	 71.474021,	 10.001061,	 0.090687 
0.712500,	 0.000093,	 1.000428,	 0.897565,	 -0.005662,	 179.015252,	 71.475527,	 10.001148,	 0.089748 
0.737500,	 0.000093,	 1.000429,	 0.886861,	 -0.006168,	 179.009396,	 71.477126,	 10.001251,	 0.088677 
0.762500,	 0.000093,	 1.000428,	 0.874578,	 -0.006777,	 179.003025,	 71.478811,	 10.001376,	 0.087448 
0.787500,	 0.000093,	 1.000422,	 0.860387,	 -0.007521,	 178.996147,	 71.480568,	 10.001528,	 0.086029 
0.812500,	 0.000093,	 1.000410,	 0.843857,	 -0.008445,	 178.988809,	 71.482373,	 10.001716,	 0.084375 
0.837500,	 0.000093,	 1.000388,	 0.824421,	 -0.009611,	 178.981113,	 71.484183,	 10.001954,	 0.082432 
0.862500,	 0.000093,	 1.000351,	 0.801295,	 -0.011108,	 178.973246,	 71.485921,	 10.002260,	 0.080119 
0.887500,	 0.000093,	 1.000292,	 0.773366,	 -0.013059,	 178.965506,	 71.487447,	 10.002658,	 0.077327 
0.912500,	 0.000093,	 1.000202,	 0.738966,	 -0.015637,	 178.958338,	 71.488485,	 10.003185,	 0.073890 
0.937500,	 0.000093,	 1.000060,	 0.695409,	 -0.019081,	 178.952325,	 71.488434,	 10.003889,	 0.069540 
0.962500,	 0.000093,	 0.999832,	 0.637893,	 -0.023703,	 178.948001,	 71.485715,	 10.004838,	 0.063802 
0.987500,	 0.000093,	 0.999427,	 0.556200,	 -0.029789,	 178.944668,	 71.474847,	 10.006105,	 0.055666 
1.012500,	 0.000093,	 0.998450,	 0.420034,	 -0.036215,	 178.931324,	 71.426078,	 10.007586,	 0.042127 
1.037500,	 0.000093,	 1.000324,	 0.095541,	 0.000683,	 179.046300,	 71.639880,	 10.013160,	 0.009542 
1.062500,	 0.000093,	 0.998758,	 0.067231,	 0.000083,	 178.988262,	 71.505507,	 10.011601,	 0.006715 
1.087500,	 0.000093,	 0.998419,	 0.056353,	 0.000037,	 178.977628,	 71.477256,	 10.011323,	 0.005629 
1.112500,	 0.000093,	 0.998250,	 0.050231,	 0.000024,	 178.973058,	 71.463428,	 10.011204,	 0.005017 
1.137500,	 0.000093,	 0.998141,	 0.046124,	 0.000018,	 178.970473,	 71.454681,	 10.011137,	 0.004607 
1.162500,	 0.000093,	 0.998062,	 0.043099,	 0.000014,	 178.968799,	 71.448435,	 10.011094,	 0.004305 
1.187500,	 0.000093,	 0.998001,	 0.040740,	 0.000012,	 178.967623,	 71.443648,	 10.011064,	 0.004069 
1.212500,	 0.000093,	 0.997952,	 0.038825,	 0.000010,	 178.966750,	 71.439805,	 10.011042,	 0.003878 
1.237500,	 0.000093,	 0.997911,	 0.037226,	 0.000009,	 178.966078,	 71.436618,	 10.011025,	 0.003719 
1.262500,	 0.000093,	 0.997876,	 0.035862,	 0.000008,	 178.965546,	 71.433910,	 10.011011,	 0.003582 
1.287500,	 0.000093,	 0.997845,	 0.034679,	 0.000007,	 178.965118,	 71.431566,	 10.011000,	 0.003464 
1.312500,	 0.000093,	 0.997818,	 0.033638,	 0.000007,	 178.964768,	 71.429508,	 10.010992,	 0.003360 
1.337500,	 0.000093,	 0.997794,	 0.032713,	 0.000006,	 178.964480,	 71.427680,	 10.010984,	 0.003268 
1.362500,	 0.000093,	 0.997773,	 0.031882,	 0.000006,	 178.964244,	 71.426040,	 10.010979,	 0.003185 
1.387500,	 0.000093,	 0.997753,	 0.031129,	 0.000006,	 178.964049,	 71.424558,	 10.010974,	 0.003110 
1.412500,	 0.000093,	 0.997735,	 0.030444,	 0.000005,	 178.963890,	 71.423208,	 10.010970,	 0.003041 
1.437500,	 0.000093,	 0.997718,	 0.029815,	 0.000005,	 178.963762,	 71.421973,	 10.010967,	 0.002978 
1.462500,	 0.000093,	 0.997703,	 0.029236,	 0.000005,	 178.963661,	 71.420837,	 10.010965,	 0.002920 
1.487500,	 0.000093,	 0.997688,	 0.028700,	 0.000004,	 178.963584,	 71.419787,	 10.010963,	 0.002867 
1.512500,	 0.000093,	 0.997675,	 0.028202,	 0.000004,	 178.963530,	 71.418815,	 10.010962,	 0.002817 
1.537500,	 0.000093,	 0.997662,	 0.027737,	 0.000004,	 178.963494,	 71.417910,	 10.010961,	 0.002771 
1.562500,	 0.000093,	 0.997651,	 0.027302,	 0.000004,	 178.963477,	 71.417066,	 10.010961,	 0.002727 
1.587500,	 0.000093,	 0.997640,	 0.026893,	 0.000004,	 178.963475,	 71.416278,	 10.010961,	 0.002686 
1.612500,	 0.000093,	 0.997629,	 0.026509,	 0.000004,	 178.963489,	 71.415539,	 10.010962,	 0.002648 
1.637500,	 0.000093,	 0.997619,	 0.026146,	 0.000003,	 178.963516,	 71.414846,	 10.010963,	 0.002612 
1.662500,	 0.000093,	 0.997610,	 0.025803,	 0.000003,	 178.963554,	 71.414195,	 10.010964,	 0.002577 
1.687500,	 0.000093,	 0.997601,	 0.025478,	 0.000003,	 178.963604,	 71.413582,	 10.010966,	 0.002545 
1.712500,	 0.000093,	 0.997593,	 0.025169,	 0.000003,	 178.963663,	 71.413005,	 10.010968,	 0.002514 
1.737500,	 0.000093,	 0.997585,	 0.024876,	 0.000003,	 178.963731,	 71.412461,	 10.010970,	 0.002485 
1.762500,	 0.000093,	 0.997577,	 0.024596,	 0.000003,	 178.963807,	 71.411947,	 10.010972,	 0.002457 
1.787500,	 0.000093,	 0.997570,	 0.024329,	 0.000003,	 178.963888,	 71.411461,	 10.010975,	 0.002430 
1.812500,	 0.000093,	 0.997563,	 0.024074,	 0.000003,	 178.963974,	 71.411003,	 10.010977,	 0.002405 
1.837500,	 0.000093,	 0.997556,	 0.023831,	 0.000003,	 178.964065,	 71.410569,	 10.010980,	 0.002380 
1.862500,	 0.000093,	 0.997550,	 0.023597,	 0.000003,	 178.964157,	 71.410159,	 10.010983,	 0.002357 
1.887500,	 0.000093,	 0.997544,	 0.023374,	 0.000003,	 178.964251,	 71.409772,	 10.010985,	 0.002335 
1.912500,	 0.000093,	 0.997538,	 0.023159,	 0.000003,	 178.964346,	 71.409405,	 10.010988,	 0.002313 
1.937500,	 0.000093,	 0.997533,	 0.022953,	 0.000002,	 178.964439,	 71.409059,	 10.010991,	 0.002293 
1.962500,	 0.000093,	 0.997528,	 0.022755,	 0.000002,	 178.964530,	 71.408731,	 10.010994,	 0.002273 
1.987500,	 0.000093,	 0.997523,	 0.022564,	 0.000002,	 178.964617,	 71.408422,	 10.010996,	 0.002254 
2.012500,	 0.000093,	 0.997518,	 0.022381,	 0.000002,	 178.964699,	 71.408130,	 10.010999,	 0.002236 
2.037500,	 0.000093,	 0.997514,	 0.022204,	 0.000002,	 178.964776,	 71.407854,	 10.011001,	 0.002218 
2.062500,	 0.000093,	 0.997510,	 0.022034,	 0.000002,	 178.964845,	 71.407593,	 10.011003,	 0.002201 
2.087500,	 0.000093,	 0.997506,	 0.021870,	 0.000002,	 178.964906,	 71.407348,	 10.011005,	 0.002185 
2.112500,	 0.000093,	 0.997503,	 0.021711,	 0.000002,	 178.964957,	 71.407117,	 10.011006,	 0.002169 
2.137500,	 0.000093,	 0.997499,	 0.021558,	 0.000002,	 178.964997,	 71.406900,	 10.011007,	 0.002153 
2.162500,	 0.000093,	 0.997496,	 0.021411,	 0.000002,	 178.965026,	 71.406697,	 10.011008,	 0.002139 
2.187500,	 0.000093,	 0.997494,	 0.021268,	 0.000002,	 178.965042,	 71.406506,	 10.011009,	 0.002124 
2.212500,	 0.000093,	 0.997491,	 0.021130,	 0.000002,	 178.965044,	 71.406327,	 10.011009,	 0.002111 
2.237500,	 0.000093,	 0.997489,	 0.020996,	 0.000002,	 178.965032,	 71.406160,	 10.011009,	 0.002097 
2.262500,	 0.000093,	 0.997487,	 0.020867,	 0.000002,	 178.965003,	 71.406004,	 10.011008,	 0.002084 
2.287500,	 0.000093,	 0.997485,	 0.020743,	 0.000002,	 178.964958,	 71.405859,	 10.011007,	 0.002072 