TITLE = "Final State"
VARIABLES = "X", "Y", "rho", "u", "v", "T", "p", "c", "M"
ZONE I=50, J=50, DATAPACKING=POINT
0.015000,	 0.010000,	 1.000000,	 1000.000000,	 0.000000,	 300.000000,	 86129.212707,	 347.247603,	 2.879789 
0.045000,	 0.010000,	 1.000000,	 1000.000000,	 0.000000,	 300.000000,	 86129.212707,	 347.247603,	 2.879789 
0.075000,	 0.010000,	 1.000000,	 1000.000000,	 0.000000,	 300.000000,	 86129.212707,	 347.247603,	 2.879789 
0.105000,	 0.010000,	 1.000000,	 1000.000000,	 0.000000,	 300.000000,	 86129.212707,	 347.247603,	 2.879789 
0.135000,	 0.010000,	 1.000000,	 1000.000000,	 0.000000,	 300.000000,	 86129.212707,	 347.247603,	 2.879789 
0.165000,	 0.010000,	 1.000000,	 1000.000000,	 0.000000,	 300.000000,	 86129.212707,	 347.247603,	 2.879789 
0.195000,	 0.010000,	 1.000000,	 1000.000000,	 0.000000,	 300.000000,	 86129.212707,	 347.247603,	 2.879789 
0.225000,	 0.010000,	 1.000000,	 1000.000000,	 0.000000,	 300.000000,	 86129.212707,	 347.247603,	 2.879789 
0.255000,	 0.010000,	 1.000000,	 1000.000000,	 0.000000,	 300.000000,	 86129.212707,	 347.247603,	 2.879789 
0.285000,	 0.010000,	 1.000000,	 1000.000000,	 0.000000,	 300.000000,	 86129.212707,	 347.247603,	 2.879789 
0.315000,	 0.010000,	 1.000000,	 1000.000000,	 0.000000,	 300.000000,	 86129.212707,	 347.247603,	 2.879789 
0.345000,	 0.010000,	 1.000000,	 1000.000000,	 0.000000,	 300.000000,	 86129.212707,	 347.247603,	 2.879789 
0.375000,	 0.010000,	 1.000000,	 1000.000000,	 0.000000,	 300.000000,	 86129.212707,	 347.247603,	 2.879789 
0.405000,	 0.010000,	 1.000000,	 1000.000000,	 0.000000,	 300.000000,	 86129.212707,	 347.247603,	 2.879789 
0.435000,	 0.010000,	 1.000000,	 1000.000000,	 0.000000,	 300.000000,	 86129.212707,	 347.247603,	 2.879789 
0.465000,	 0.010000,	 1.000000,	 1000.000000,	 0.000000,	 300.000000,	 86129.212707,	 347.247603,	 2.879789 
0.495000,	 0.011238,	 1.000551,	 1000.527029,	 0.291779,	 574.307393,	 164973.052017,	 480.452915,	 2.082466 
0.525000,	 0.016188,	 1.001662,	 1001.341171,	 1.284729,	 1127.062667,	 324114.632860,	 673.058265,	 1.487749 
0.555000,	 0.023613,	 1.001675,	 1001.351370,	 1.294499,	 1133.352117,	 325927.432432,	 674.933616,	 1.483631 
0.585000,	 0.031037,	 1.001688,	 1001.361726,	 1.304418,	 1139.737957,	 327768.061080,	 676.832392,	 1.479484 
0.615000,	 0.038462,	 1.001701,	 1001.372241,	 1.314491,	 1146.222420,	 329637.164584,	 678.755058,	 1.475308 
0.645000,	 0.045888,	 1.001714,	 1001.382920,	 1.324721,	 1152.807808,	 331535.408860,	 680.702090,	 1.471104 
0.675000,	 0.053312,	 1.001728,	 1001.393766,	 1.335111,	 1159.496497,	 333463.480751,	 682.673979,	 1.466871 
0.705000,	 0.060737,	 1.001741,	 1001.404784,	 1.345665,	 1166.290936,	 335422.088856,	 684.671230,	 1.462608 
0.735000,	 0.068162,	 1.001755,	 1001.415978,	 1.356387,	 1173.193652,	 337411.964398,	 686.694362,	 1.458315 
0.765000,	 0.075588,	 1.001769,	 1001.427351,	 1.367282,	 1180.207256,	 339433.862134,	 688.743906,	 1.453992 
0.795000,	 0.083013,	 1.001783,	 1001.438909,	 1.378353,	 1187.334440,	 341488.561311,	 690.820413,	 1.449638 
0.825000,	 0.090438,	 1.001798,	 1001.450655,	 1.389605,	 1194.577987,	 343576.866665,	 692.924445,	 1.445254 
0.855000,	 0.097863,	 1.001813,	 1001.462594,	 1.401042,	 1201.940768,	 345699.609474,	 695.056585,	 1.440837 
0.885000,	 0.105288,	 1.001828,	 1001.474732,	 1.412669,	 1209.425754,	 347857.648659,	 697.217430,	 1.436389 
0.915000,	 0.112712,	 1.001843,	 1001.487073,	 1.424490,	 1217.036011,	 350051.871946,	 699.407594,	 1.431909 
0.945000,	 0.120138,	 1.001859,	 1001.499622,	 1.436511,	 1224.774712,	 352283.197080,	 701.627713,	 1.427396 
0.975000,	 0.127562,	 1.001875,	 1001.512385,	 1.448737,	 1232.645135,	 354552.573107,	 703.878439,	 1.422850 
1.005000,	 0.134988,	 1.001891,	 1001.525367,	 1.461172,	 1240.650673,	 356860.981720,	 706.160444,	 1.418270 
1.035000,	 0.142412,	 1.001907,	 1001.538573,	 1.473823,	 1248.794834,	 359209.438674,	 708.474423,	 1.413657 
1.065000,	 0.149838,	 1.001924,	 1001.552011,	 1.486695,	 1257.081252,	 361598.995275,	 710.821089,	 1.409009 
1.095000,	 0.157262,	 1.001941,	 1001.565685,	 1.499794,	 1265.513686,	 364030.739954,	 713.201179,	 1.404326 
1.125000,	 0.164687,	 1.001958,	 1001.579602,	 1.513125,	 1274.096030,	 366505.799914,	 715.615453,	 1.399607 
1.155000,	 0.172113,	 1.001975,	 1001.593769,	 1.526696,	 1282.832317,	 369025.342877,	 718.064696,	 1.394853 
1.185000,	 0.179538,	 1.001993,	 1001.608192,	 1.540512,	 1291.726727,	 371590.578917,	 720.549717,	 1.390063 
1.215000,	 0.186963,	 1.002012,	 1001.622879,	 1.554581,	 1300.783592,	 374202.762402,	 723.071351,	 1.385235 
1.245000,	 0.194387,	 1.002030,	 1001.637836,	 1.568909,	 1310.007404,	 376863.194036,	 725.630459,	 1.380371 
1.275000,	 0.201813,	 1.002049,	 1001.653072,	 1.583503,	 1319.402822,	 379573.223018,	 728.227933,	 1.375468 
1.305000,	 0.209237,	 1.002068,	 1001.668594,	 1.598372,	 1328.974679,	 382334.249329,	 730.864693,	 1.370527 
1.335000,	 0.216663,	 1.002088,	 1001.684410,	 1.613522,	 1338.727994,	 385147.726135,	 733.541690,	 1.365547 
1.365000,	 0.224087,	 1.002108,	 1001.700528,	 1.628963,	 1348.667975,	 388015.162346,	 736.259907,	 1.360528 
1.395000,	 0.231513,	 1.002128,	 1001.716959,	 1.644701,	 1358.800032,	 390938.125308,	 739.020360,	 1.355468 
1.425000,	 0.238938,	 1.002149,	 1001.733709,	 1.660747,	 1369.129789,	 393918.243663,	 741.824101,	 1.350367 
1.455000,	 0.246362,	 1.002170,	 1001.750790,	 1.677109,	 1379.663087,	 396957.210372,	 744.672218,	 1.345226 
1.485000,	 0.253787,	 1.002192,	 1001.768211,	 1.693797,	 1390.406004,	 400056.785926,	 747.565837,	 1.340042 
0.015000,	 0.030000,	 1.000000,	 1000.000000,	 0.000000,	 300.000000,	 86129.212707,	 347.247603,	 2.879789 
0.045000,	 0.030000,	 1.000000,	 1000.000000,	 0.000000,	 300.000000,	 86129.212707,	 347.247603,	 2.879789 
0.075000,	 0.030000,	 1.000000,	 1000.000000,	 0.000000,	 300.000000,	 86129.212707,	 347.247603,	 2.879789 
0.105000,	 0.030000,	 1.000000,	 1000.000000,	 0.000000,	 300.000000,	 86129.212707,	 347.247603,	 2.879789 
0.135000,	 0.030000,	 1.000000,	 1000.000000,	 0.000000,	 300.000000,	 86129.212707,	 347.247603,	 2.879789 
0.165000,	 0.030000,	 1.000000,	 1000.000000,	 0.000000,	 300.000000,	 86129.212707,	 347.247603,	 2.879789 
0.195000,	 0.030000,	 1.000000,	 1000.000000,	 0.000000,	 300.000000,	 86129.212707,	 347.247603,	 2.879789 
0.225000,	 0.030000,	 1.000000,	 1000.000000,	 0.000000,	 300.000000,	 86129.212707,	 347.247603,	 2.879789 
0.255000,	 0.030000,	 1.000000,	 1000.000000,	 0.000000,	 300.000000,	 86129.212707,	 347.247603,	 2.879789 
0.285000,	 0.030000,	 1.000000,	 1000.000000,	 0.000000,	 300.000000,	 86129.212707,	 347.247603,	 2.879789 
0.315000,	 0.030000,	 1.000000,	 1000.000000,	 0.000000,	 300.000000,	 86129.212707,	 347.247603,	 2.879789 
0.345000,	 0.030000,	 1.000000,	 1000.000000,	 0.000000,	 300.000000,	 86129.212707,	 347.247603,	 2.879789 
0.375000,	 0.030000,	 1.000000,	 1000.000000,	 0.000000,	 300.000000,	 86129.212707,	 347.247603,	 2.879789 
0.405000,	 0.030000,	 1.000000,	 1000.000000,	 0.000000,	 300.000000,	 86129.212707,	 347.247603,	 2.879789 
0.435000,	 0.030000,	 1.000000,	 1000.000000,	 0.000000,	 300.000000,	 86129.212707,	 347.247603,	 2.879789 
0.465000,	 0.030000,	 1.000000,	 1000.000000,	 0.000000,	 300.000000,	 86129.212707,	 347.247603,	 2.879789 
0.495000,	 0.031213,	 1.000000,	 1000.000000,	 -0.000000,	 300.000000,	 86129.212707,	 347.247603,	 2.879789 
0.525000,	 0.036062,	 1.000000,	 1000.000000,	 -0.000000,	 300.000000,	 86129.212707,	 347.247603,	 2.879789 
0.555000,	 0.043338,	 1.000000,	 1000.000000,	 0.000000,	 300.000000,	 86129.212707,	 347.247603,	 2.879789 
0.585000,	 0.050613,	 1.000000,	 1000.000000,	 -0.000000,	 300.000000,	 86129.212707,	 347.247603,	 2.879789 
0.615000,	 0.057887,	 1.000000,	 1000.000000,	 -0.000000,	 300.000000,	 86129.212707,	 347.247603,	 2.879789 
0.645000,	 0.065162,	 1.000000,	 1000.000000,	 0.000000,	 300.000000,	 86129.212707,	 347.247603,	 2.879789 
0.675000,	 0.072437,	 1.000000,	 1000.000000,	 -0.000000,	 300.000000,	 86129.212707,	 347.247603,	 2.879789 
0.705000,	 0.079712,	 1.000000,	 1000.000000,	 -0.000000,	 300.000000,	 86129.212707,	 347.247603,	 2.879789 
0.735000,	 0.086987,	 1.000000,	 1000.000000,	 -0.000000,	 300.000000,	 86129.212707,	 347.247603,	 2.879789 
0.765000,	 0.094262,	 1.000000,	 1000.000000,	 -0.000000,	 300.000000,	 86129.212707,	 347.247603,	 2.879789 
0.795000,	 0.101538,	 1.000000,	 1000.000000,	 -0.000000,	 300.000000,	 86129.212707,	 347.247603,	 2.879789 
0.825000,	 0.108812,	 1.000000,	 1000.000000,	 -0.000000,	 300.000000,	 86129.212707,	 347.247603,	 2.879789 
0.855000,	 0.116087,	 1.000000,	 1000.000000,	 -0.000000,	 300.000000,	 86129.212707,	 347.247603,	 2.879789 
0.885000,	 0.123363,	 1.000000,	 1000.000000,	 -0.000000,	 300.000000,	 86129.212707,	 347.247603,	 2.879789 
0.915000,	 0.130637,	 1.000000,	 1000.000000,	 -0.000000,	 300.000000,	 86129.212707,	 347.247603,	 2.879789 
0.945000,	 0.137912,	 1.000000,	 1000.000000,	 -0.000000,	 300.000000,	 86129.212707,	 347.247603,	 2.879789 
0.975000,	 0.145187,	 1.000000,	 1000.000000,	 -0.000000,	 300.000000,	 86129.212707,	 347.247603,	 2.879789 
1.005000,	 0.152463,	 1.000000,	 1000.000000,	 0.000000,	 300.000000,	 86129.212707,	 347.247603,	 2.879789 
1.035000,	 0.159738,	 1.000000,	 1000.000000,	 -0.000000,	 300.000000,	 86129.212707,	 347.247603,	 2.879789 
1.065000,	 0.167013,	 1.000000,	 1000.000000,	 0.000000,	 300.000000,	 86129.212707,	 347.247603,	 2.879789 
1.095000,	 0.174288,	 1.000000,	 1000.000000,	 0.000000,	 300.000000,	 86129.212707,	 347.247603,	 2.879789 
1.125000,	 0.181562,	 1.000000,	 1000.000000,	 -0.000000,	 300.000000,	 86129.212707,	 347.247603,	 2.879789 
1.155000,	 0.188837,	 1.000000,	 1000.000000,	 0.000000,	 300.000000,	 86129.212707,	 347.247603,	 2.879789 
1.185000,	 0.196112,	 1.000000,	 1000.000000,	 -0.000000,	 300.000000,	 86129.212707,	 347.247603,	 2.879789 
1.215000,	 0.203387,	 1.000000,	 1000.000000,	 0.000000,	 300.000000,	 86129.212707,	 347.247603,	 2.879789 
1.245000,	 0.210663,	 1.000000,	 1000.000000,	 -0.000000,	 300.000000,	 86129.212707,	 347.247603,	 2.879789 
1.275000,	 0.217938,	 1.000000,	 1000.000000,	 0.000000,	 300.000000,	 86129.212707,	 347.247603,	 2.879789 
1.305000,	 0.225213,	 1.000000,	 1000.000000,	 0.000000,	 300.000000,	 86129.212707,	 347.247603,	 2.879789 
1.335000,	 0.232488,	 1.000000,	 1000.000000,	 -0.000000,	 300.000000,	 86129.212707,	 347.247603,	 2.879789 
1.365000,	 0.239762,	 1.000000,	 1000.000000,	 -0.000000,	 300.000000,	 86129.212707,	 347.247603,	 2.879789 
1.395000,	 0.247037,	 1.000000,	 1000.000000,	 0.000000,	 300.000000,	 86129.212707,	 347.247603,	 2.879789 
1.425000,	 0.254312,	 1.000000,	 1000.000000,	 -0.000000,	 300.000000,	 86129.212707,	 347.247603,	 2.879789 
1.455000,	 0.261588,	 1.000000,	 1000.000000,	 -0.000000,	 300.000000,	 86129.212707,	 347.247603,	 2.879789 
1.485000,	 0.268863,	 1.000000,	 1000.000000,	 -0.000000,	 300.000000,	 86129.212707,	 347.247603,	 2.879789 
0.015000,	 0.050000,	 1.000000,	 1000.000000,	 0.000000,	 300.000000,	 86129.212707,	 347.247603,	 2.879789 
0.045000,	 0.050000,	 1.000000,	 1000.000000,	 0.000000,	 300.000000,	 86129.212707,	 347.247603,	 2.879789 
0.075000,	 0.050000,	 1.000000,	 1000.000000,	 0.000000,	 300.000000,	 86129.212707,	 347.247603,	 2.879789 
0.105000,	 0.050000,	 1.000000,	 1000.000000,	 0.000000,	 300.000000,	 86129.212707,	 347.247603,	 2.879789 
0.135000,	 0.050000,	 1.000000,	 1000.000000,	 0.000000,	 300.000000,	 86129.212707,	 347.247603,	 2.879789 
0.165000,	 0.050000,	 1.000000,	 1000.000000,	 0.000000,	 300.000000,	 86129.212707,	 347.247603,	 2.879789 
0.195000,	 0.050000,	 1.000000,	 1000.000000,	 0.000000,	 300.000000,	 86129.212707,	 347.247603,	 2.879789 
0.225000,	 0.050000,	 1.000000,	 1000.000000,	 0.000000,	 300.000000,	 86129.212707,	 347.247603,	 2.879789 
0.255000,	 0.050000,	 1.000000,	 1000.000000,	 0.000000,	 300.000000,	 86129.212707,	 347.247603,	 2.879789 
0.285000,	 0.050000,	 1.000000,	 1000.000000,	 0.000000,	 300.000000,	 86129.212707,	 347.247603,	 2.879789 
0.315000,	 0.050000,	 1.000000,	 1000.000000,	 0.000000,	 300.000000,	 86129.212707,	 347.247603,	 2.879789 
0.345000,	 0.050000,	 1.000000,	 1000.000000,	 0.000000,	 300.000000,	 86129.212707,	 347.247603,	 2.879789 
0.375000,	 0.050000,	 1.000000,	 1000.000000,	 0.000000,	 300.000000,	 86129.212707,	 347.247603,	 2.879789 
0.405000,	 0.050000,	 1.000000,	 1000.000000,	 0.000000,	 300.000000,	 86129.212707,	 347.247603,	 2.879789 
0.435000,	 0.050000,	 1.000000,	 1000.000000,	 0.000000,	 300.000000,	 86129.212707,	 347.247603,	 2.879789 
0.465000,	 0.050000,	 1.000000,	 1000.000000,	 0.000000,	 300.000000,	 86129.212707,	 347.247603,	 2.879789 
0.495000,	 0.051187,	 1.000000,	 1000.000000,	 0.000000,	 300.000000,	 86129.212707,	 347.247603,	 2.879789 
0.525000,	 0.055938,	 1.000000,	 1000.000000,	 0.000000,	 300.000000,	 86129.212707,	 347.247603,	 2.879789 
0.555000,	 0.063063,	 1.000000,	 1000.000000,	 0.000000,	 300.000000,	 86129.212707,	 347.247603,	 2.879789 
0.585000,	 0.070187,	 1.000000,	 1000.000000,	 0.000000,	 300.000000,	 86129.212707,	 347.247603,	 2.879789 
0.615000,	 0.077313,	 1.000000,	 1000.000000,	 0.000000,	 300.000000,	 86129.212707,	 347.247603,	 2.879789 
0.645000,	 0.084438,	 1.000000,	 1000.000000,	 0.000000,	 300.000000,	 86129.212707,	 347.247603,	 2.879789 
0.675000,	 0.091563,	 1.000000,	 1000.000000,	 0.000000,	 300.000000,	 86129.212707,	 347.247603,	 2.879789 
0.705000,	 0.098688,	 1.000000,	 1000.000000,	 0.000000,	 300.000000,	 86129.212707,	 347.247603,	 2.879789 
0.735000,	 0.105813,	 1.000000,	 1000.000000,	 0.000000,	 300.000000,	 86129.212707,	 347.247603,	 2.879789 
0.765000,	 0.112937,	 1.000000,	 1000.000000,	 0.000000,	 300.000000,	 86129.212707,	 347.247603,	 2.879789 
0.795000,	 0.120063,	 1.000000,	 1000.000000,	 0.000000,	 300.000000,	 86129.212707,	 347.247603,	 2.879789 
0.825000,	 0.127188,	 1.000000,	 1000.000000,	 0.000000,	 300.000000,	 86129.212707,	 347.247603,	 2.879789 
0.855000,	 0.134313,	 1.000000,	 1000.000000,	 0.000000,	 300.000000,	 86129.212707,	 347.247603,	 2.879789 
0.885000,	 0.141438,	 1.000000,	 1000.000000,	 0.000000,	 300.000000,	 86129.212707,	 347.247603,	 2.879789 
0.915000,	 0.148563,	 1.000000,	 1000.000000,	 0.000000,	 300.000000,	 86129.212707,	 347.247603,	 2.879789 
0.945000,	 0.155688,	 1.000000,	 1000.000000,	 0.000000,	 300.000000,	 86129.212707,	 347.247603,	 2.879789 
0.975000,	 0.162812,	 1.000000,	 1000.000000,	 0.000000,	 300.000000,	 86129.212707,	 347.247603,	 2.879789 
1.005000,	 0.169938,	 1.000000,	 1000.000000,	 0.000000,	 300.000000,	 86129.212707,	 347.247603,	 2.879789 
1.035000,	 0.177063,	 1.000000,	 1000.000000,	 0.000000,	 300.000000,	 86129.212707,	 347.247603,	 2.879789 
1.065000,	 0.184188,	 1.000000,	 1000.000000,	 0.000000,	 300.000000,	 86129.212707,	 347.247603,	 2.879789 
1.095000,	 0.191313,	 1.000000,	 1000.000000,	 -0.000000,	 300.000000,	 86129.212707,	 347.247603,	 2.879789 
1.125000,	 0.198438,	 1.000000,	 1000.000000,	 0.000000,	 300.000000,	 86129.212707,	 347.247603,	 2.879789 
1.155000,	 0.205563,	 1.000000,	 1000.000000,	 0.000000,	 300.000000,	 86129.212707,	 347.247603,	 2.879789 
1.185000,	 0.212688,	 1.000000,	 1000.000000,	 0.000000,	 300.000000,	 86129.212707,	 347.247603,	 2.879789 
1.215000,	 0.219813,	 1.000000,	 1000.000000,	 0.000000,	 300.000000,	 86129.212707,	 347.247603,	 2.879789 
1.245000,	 0.226938,	 1.000000,	 1000.000000,	 0.000000,	 300.000000,	 86129.212707,	 347.247603,	 2.879789 
1.275000,	 0.234063,	 1.000000,	 1000.000000,	 0.000000,	 300.000000,	 86129.212707,	 347.247603,	 2.879789 
1.305000,	 0.241188,	 1.000000,	 1000.000000,	 0.000000,	 300.000000,	 86129.212707,	 347.247603,	 2.879789 
1.335000,	 0.248312,	 1.000000,	 1000.000000,	 0.000000,	 300.000000,	 86129.212707,	 347.247603,	 2.879789 
1.365000,	 0.255437,	 1.000000,	 1000.000000,	 0.000000,	 300.000000,	 86129.212707,	 347.247603,	 2.879789 
1.395000,	 0.262562,	 1.000000,	 1000.000000,	 0.000000,	 300.000000,	 86129.212707,	 347.247603,	 2.879789 
1.425000,	 0.269687,	 1.000000,	 1000.000000,	 0.000000,	 300.000000,	 86129.212707,	 347.247603,	 2.879789 
1.455000,	 0.276812,	 1.000000,	 1000.000000,	 0.000000,	 300.000000,	 86129.212707,	 347.247603,	 2.879789 
1.485000,	 0.283937,	 1.000000,	 1000.000000,	 0.000000,	 300.000000,	 86129.212707,	 347.247603,	 2.879789 
0.015000,	 0.070000,	 1.000000,	 1000.000000,	 0.000000,	 300.000000,	 86129.212707,	 347.247603,	 2.879789 
0.045000,	 0.070000,	 1.000000,	 1000.000000,	 0.000000,	 300.000000,	 86129.212707,	 347.247603,	 2.879789 
0.075000,	 0.070000,	 1.000000,	 1000.000000,	 0.000000,	 300.000000,	 86129.212707,	 347.247603,	 2.879789 
0.105000,	 0.070000,	 1.000000,	 1000.000000,	 0.000000,	 300.000000,	 86129.212707,	 347.247603,	 2.879789 
0.135000,	 0.070000,	 1.000000,	 1000.000000,	 0.000000,	 300.000000,	 86129.212707,	 347.247603,	 2.879789 
0.165000,	 0.070000,	 1.000000,	 1000.000000,	 0.000000,	 300.000000,	 86129.212707,	 347.247603,	 2.879789 
0.195000,	 0.070000,	 1.000000,	 1000.000000,	 0.000000,	 300.000000,	 86129.212707,	 347.247603,	 2.879789 
0.225000,	 0.070000,	 1.000000,	 1000.000000,	 0.000000,	 300.000000,	 86129.212707,	 347.247603,	 2.879789 
0.255000,	 0.070000,	 1.000000,	 1000.000000,	 0.000000,	 300.000000,	 86129.212707,	 347.247603,	 2.879789 
0.285000,	 0.070000,	 1.000000,	 1000.000000,	 0.000000,	 300.000000,	 86129.212707,	 347.247603,	 2.879789 
0.315000,	 0.070000,	 1.000000,	 1000.000000,	 0.000000,	 300.000000,	 86129.212707,	 347.247603,	 2.879789 
0.345000,	 0.070000,	 1.000000,	 1000.000000,	 0.000000,	 300.000000,	 86129.212707,	 347.247603,	 2.879789 
0.375000,	 0.070000,	 1.000000,	 1000.000000,	 0.000000,	 300.000000,	 86129.212707,	 347.247603,	 2.879789 
0.405000,	 0.070000,	 1.000000,	 1000.000000,	 0.000000,	 300.000000,	 86129.212707,	 347.247603,	 2.879789 
0.435000,	 0.070000,	 1.000000,	 1000.000000,	 0.000000,	 300.000000,	 86129.212707,	 347.247603,	 2.879789 
0.465000,	 0.070000,	 1.000000,	 1000.000000,	 0.000000,	 300.000000,	 86129.212707,	 347.247603,	 2.879789 
0.495000,	 0.071163,	 1.000000,	 1000.000000,	 0.000000,	 300.000000,	 86129.212707,	 347.247603,	 2.879789 
0.525000,	 0.075813,	 1.000000,	 1000.000000,	 0.000000,	 300.000000,	 86129.212707,	 347.247603,	 2.879789 
0.555000,	 0.082787,	 1.000000,	 1000.000000,	 0.000000,	 300.000000,	 86129.212707,	 347.247603,	 2.879789 
0.585000,	 0.089763,	 1.000000,	 1000.000000,	 0.000000,	 300.000000,	 86129.212707,	 347.247603,	 2.879789 
0.615000,	 0.096738,	 1.000000,	 1000.000000,	 0.000000,	 300.000000,	 86129.212707,	 347.247603,	 2.879789 
0.645000,	 0.103712,	 1.000000,	 1000.000000,	 0.000000,	 300.000000,	 86129.212707,	 347.247603,	 2.879789 
0.675000,	 0.110688,	 1.000000,	 1000.000000,	 0.000000,	 300.000000,	 86129.212707,	 347.247603,	 2.879789 
0.705000,	 0.117663,	 1.000000,	 1000.000000,	 0.000000,	 300.000000,	 86129.212707,	 347.247603,	 2.879789 
0.735000,	 0.124637,	 1.000000,	 1000.000000,	 -0.000000,	 300.000000,	 86129.212707,	 347.247603,	 2.879789 
0.765000,	 0.131613,	 1.000000,	 1000.000000,	 0.000000,	 300.000000,	 86129.212707,	 347.247603,	 2.879789 
0.795000,	 0.138588,	 1.000000,	 1000.000000,	 0.000000,	 300.000000,	 86129.212707,	 347.247603,	 2.879789 
0.825000,	 0.145562,	 1.000000,	 1000.000000,	 -0.000000,	 300.000000,	 86129.212707,	 347.247603,	 2.879789 
0.855000,	 0.152537,	 1.000000,	 1000.000000,	 0.000000,	 300.000000,	 86129.212707,	 347.247603,	 2.879789 
0.885000,	 0.159513,	 1.000000,	 1000.000000,	 0.000000,	 300.000000,	 86129.212707,	 347.247603,	 2.879789 
0.915000,	 0.166488,	 1.000000,	 1000.000000,	 -0.000000,	 300.000000,	 86129.212707,	 347.247603,	 2.879789 
0.945000,	 0.173463,	 1.000000,	 1000.000000,	 0.000000,	 300.000000,	 86129.212707,	 347.247603,	 2.879789 
0.975000,	 0.180438,	 1.000000,	 1000.000000,	 -0.000000,	 300.000000,	 86129.212707,	 347.247603,	 2.879789 
1.005000,	 0.187413,	 1.000000,	 1000.000000,	 0.000000,	 300.000000,	 86129.212707,	 347.247603,	 2.879789 
1.035000,	 0.194387,	 1.000000,	 1000.000000,	 0.000000,	 300.000000,	 86129.212707,	 347.247603,	 2.879789 
1.065000,	 0.201362,	 1.000000,	 1000.000000,	 -0.000000,	 300.000000,	 86129.212707,	 347.247603,	 2.879789 
1.095000,	 0.208338,	 1.000000,	 1000.000000,	 0.000000,	 300.000000,	 86129.212707,	 347.247603,	 2.879789 
1.125000,	 0.215313,	 1.000000,	 1000.000000,	 -0.000000,	 300.000000,	 86129.212707,	 347.247603,	 2.879789 
1.155000,	 0.222288,	 1.000000,	 1000.000000,	 0.000000,	 300.000000,	 86129.212707,	 347.247603,	 2.879789 
1.185000,	 0.229262,	 1.000000,	 1000.000000,	 0.000000,	 300.000000,	 86129.212707,	 347.247603,	 2.879789 
1.215000,	 0.236238,	 1.000000,	 1000.000000,	 -0.000000,	 300.000000,	 86129.212707,	 347.247603,	 2.879789 
1.245000,	 0.243212,	 1.000000,	 1000.000000,	 -0.000000,	 300.000000,	 86129.212707,	 347.247603,	 2.879789 
1.275000,	 0.250188,	 1.000000,	 1000.000000,	 0.000000,	 300.000000,	 86129.212707,	 347.247603,	 2.879789 
1.305000,	 0.257162,	 1.000000,	 1000.000000,	 -0.000000,	 300.000000,	 86129.212707,	 347.247603,	 2.879789 
1.335000,	 0.264137,	 1.000000,	 1000.000000,	 0.000000,	 300.000000,	 86129.212707,	 347.247603,	 2.879789 
1.365000,	 0.271112,	 1.000000,	 1000.000000,	 0.000000,	 300.000000,	 86129.212707,	 347.247603,	 2.879789 
1.395000,	 0.278087,	 1.000000,	 1000.000000,	 -0.000000,	 300.000000,	 86129.212707,	 347.247603,	 2.879789 
1.425000,	 0.285062,	 1.000000,	 1000.000000,	 -0.000000,	 300.000000,	 86129.212707,	 347.247603,	 2.879789 
1.455000,	 0.292038,	 1.000000,	 1000.000000,	 0.000000,	 300.000000,	 86129.212707,	 347.247603,	 2.879789 
1.485000,	 0.299012,	 1.000000,	 1000.000000,	 -0.000000,	 300.000000,	 86129.212707,	 347.247603,	 2.879789 
0.015000,	 0.090000,	 1.000000,	 1000.000000,	 0.000000,	 300.000000,	 86129.212707,	 347.247603,	 2.879789 
0.045000,	 0.090000,	 1.000000,	 1000.000000,	 0.000000,	 300.000000,	 86129.212707,	 347.247603,	 2.879789 
0.075000,	 0.090000,	 1.000000,	 1000.000000,	 0.000000,	 300.000000,	 86129.212707,	 347.247603,	 2.879789 
0.105000,	 0.090000,	 1.000000,	 1000.000000,	 0.000000,	 300.000000,	 86129.212707,	 347.247603,	 2.879789 
0.135000,	 0.090000,	 1.000000,	 1000.000000,	 0.000000,	 300.000000,	 86129.212707,	 347.247603,	 2.879789 
0.165000,	 0.090000,	 1.000000,	 1000.000000,	 0.000000,	 300.000000,	 86129.212707,	 347.247603,	 2.879789 
0.195000,	 0.090000,	 1.000000,	 1000.000000,	 0.000000,	 300.000000,	 86129.212707,	 347.247603,	 2.879789 
0.225000,	 0.090000,	 1.000000,	 1000.000000,	 0.000000,	 300.000000,	 86129.212707,	 347.247603,	 2.879789 
0.255000,	 0.090000,	 1.000000,	 1000.000000,	 0.000000,	 300.000000,	 86129.212707,	 347.247603,	 2.879789 
0.285000,	 0.090000,	 1.000000,	 1000.000000,	 0.000000,	 300.000000,	 86129.212707,	 347.247603,	 2.879789 
0.315000,	 0.090000,	 1.000000,	 1000.000000,	 0.000000,	 300.000000,	 86129.212707,	 347.247603,	 2.879789 
0.345000,	 0.090000,	 1.000000,	 1000.000000,	 0.000000,	 300.000000,	 86129.212707,	 347.247603,	 2.879789 
0.375000,	 0.090000,	 1.000000,	 1000.000000,	 0.000000,	 300.000000,	 86129.212707,	 347.247603,	 2.879789 
0.405000,	 0.090000,	 1.000000,	 1000.000000,	 0.000000,	 300.000000,	 86129.212707,	 347.247603,	 2.879789 
0.435000,	 0.090000,	 1.000000,	 1000.000000,	 0.000000,	 300.000000,	 86129.212707,	 347.247603,	 2.879789 
0.465000,	 0.090000,	 1.000000,	 1000.000000,	 0.000000,	 300.000000,	 86129.212707,	 347.247603,	 2.879789 
0.495000,	 0.091138,	 1.000000,	 1000.000000,	 0.000000,	 300.000000,	 86129.212707,	 347.247603,	 2.879789 
0.525000,	 0.095687,	 1.000000,	 1000.000000,	 0.000000,	 300.000000,	 86129.212707,	 347.247603,	 2.879789 
0.555000,	 0.102513,	 1.000000,	 1000.000000,	 -0.000000,	 300.000000,	 86129.212707,	 347.247603,	 2.879789 
0.585000,	 0.109338,	 1.000000,	 1000.000000,	 0.000000,	 300.000000,	 86129.212707,	 347.247603,	 2.879789 
0.615000,	 0.116162,	 1.000000,	 1000.000000,	 0.000000,	 300.000000,	 86129.212707,	 347.247603,	 2.879789 
0.645000,	 0.122987,	 1.000000,	 1000.000000,	 -0.000000,	 300.000000,	 86129.212707,	 347.247603,	 2.879789 
0.675000,	 0.129812,	 1.000000,	 1000.000000,	 -0.000000,	 300.000000,	 86129.212707,	 347.247603,	 2.879789 
0.705000,	 0.136637,	 1.000000,	 1000.000000,	 0.000000,	 300.000000,	 86129.212707,	 347.247603,	 2.879789 
0.735000,	 0.143462,	 1.000000,	 1000.000000,	 0.000000,	 300.000000,	 86129.212707,	 347.247603,	 2.879789 
0.765000,	 0.150288,	 1.000000,	 1000.000000,	 0.000000,	 300.000000,	 86129.212707,	 347.247603,	 2.879789 
0.795000,	 0.157112,	 1.000000,	 1000.000000,	 -0.000000,	 300.000000,	 86129.212707,	 347.247603,	 2.879789 
0.825000,	 0.163938,	 1.000000,	 1000.000000,	 0.000000,	 300.000000,	 86129.212707,	 347.247603,	 2.879789 
0.855000,	 0.170763,	 1.000000,	 1000.000000,	 0.000000,	 300.000000,	 86129.212707,	 347.247603,	 2.879789 
0.885000,	 0.177587,	 1.000000,	 1000.000000,	 -0.000000,	 300.000000,	 86129.212707,	 347.247603,	 2.879789 
0.915000,	 0.184412,	 1.000000,	 1000.000000,	 0.000000,	 300.000000,	 86129.212707,	 347.247603,	 2.879789 
0.945000,	 0.191238,	 1.000000,	 1000.000000,	 -0.000000,	 300.000000,	 86129.212707,	 347.247603,	 2.879789 
0.975000,	 0.198063,	 1.000000,	 1000.000000,	 0.000000,	 300.000000,	 86129.212707,	 347.247603,	 2.879789 
1.005000,	 0.204888,	 1.000000,	 1000.000000,	 0.000000,	 300.000000,	 86129.212707,	 347.247603,	 2.879789 
1.035000,	 0.211712,	 1.000000,	 1000.000000,	 0.000000,	 300.000000,	 86129.212707,	 347.247603,	 2.879789 
1.065000,	 0.218537,	 1.000000,	 1000.000000,	 0.000000,	 300.000000,	 86129.212707,	 347.247603,	 2.879789 
1.095000,	 0.225362,	 1.000000,	 1000.000000,	 0.000000,	 300.000000,	 86129.212707,	 347.247603,	 2.879789 
1.125000,	 0.232187,	 1.000000,	 1000.000000,	 0.000000,	 300.000000,	 86129.212707,	 347.247603,	 2.879789 
1.155000,	 0.239013,	 1.000000,	 1000.000000,	 -0.000000,	 300.000000,	 86129.212707,	 347.247603,	 2.879789 
1.185000,	 0.245837,	 1.000000,	 1000.000000,	 0.000000,	 300.000000,	 86129.212707,	 347.247603,	 2.879789 
1.215000,	 0.252663,	 1.000000,	 1000.000000,	 0.000000,	 300.000000,	 86129.212707,	 347.247603,	 2.879789 
1.245000,	 0.259487,	 1.000000,	 1000.000000,	 0.000000,	 300.000000,	 86129.212707,	 347.247603,	 2.879789 
1.275000,	 0.266312,	 1.000000,	 1000.000000,	 0.000000,	 300.000000,	 86129.212707,	 347.247603,	 2.879789 
1.305000,	 0.273137,	 1.000000,	 1000.000000,	 0.000000,	 300.000000,	 86129.212707,	 347.247603,	 2.879789 
1.335000,	 0.279963,	 1.000000,	 1000.000000,	 0.000000,	 300.000000,	 86129.212707,	 347.247603,	 2.879789 
1.365000,	 0.286788,	 1.000000,	 1000.000000,	 0.000000,	 300.000000,	 86129.212707,	 347.247603,	 2.879789 
1.395000,	 0.293612,	 1.000000,	 1000.000000,	 0.000000,	 300.000000,	 86129.212707,	 347.247603,	 2.879789 
1.425000,	 0.300438,	 1.000000,	 1000.000000,	 0.000000,	 300.000000,	 86129.212707,	 347.247603,	 2.879789 
1.455000,	 0.307262,	 1.000000,	 1000.000000,	 0.000000,	 300.000000,	 86129.212707,	 347.247603,	 2.879789 
1.485000,	 0.314087,	 1.000000,	 1000.000000,	 0.000000,	 300.000000,	 86129.212707,	 347.247603,	 2.879789 
0.015000,	 0.110000,	 1.000000,	 1000.000000,	 0.000000,	 300.000000,	 86129.212707,	 347.247603,	 2.879789 
0.045000,	 0.110000,	 1.000000,	 1000.000000,	 0.000000,	 300.000000,	 86129.212707,	 347.247603,	 2.879789 
0.075000,	 0.110000,	 1.000000,	 1000.000000,	 0.000000,	 300.000000,	 86129.212707,	 347.247603,	 2.879789 
0.105000,	 0.110000,	 1.000000,	 1000.000000,	 0.000000,	 300.000000,	 86129.212707,	 347.247603,	 2.879789 
0.135000,	 0.110000,	 1.000000,	 1000.000000,	 0.000000,	 300.000000,	 86129.212707,	 347.247603,	 2.879789 
0.165000,	 0.110000,	 1.000000,	 1000.000000,	 0.000000,	 300.000000,	 86129.212707,	 347.247603,	 2.879789 
0.195000,	 0.110000,	 1.000000,	 1000.000000,	 0.000000,	 300.000000,	 86129.212707,	 347.247603,	 2.879789 
0.225000,	 0.110000,	 1.000000,	 1000.000000,	 0.000000,	 300.000000,	 86129.212707,	 347.247603,	 2.879789 
0.255000,	 0.110000,	 1.000000,	 1000.000000,	 0.000000,	 300.000000,	 86129.212707,	 347.247603,	 2.879789 
0.285000,	 0.110000,	 1.000000,	 1000.000000,	 0.000000,	 300.000000,	 86129.212707,	 347.247603,	 2.879789 
0.315000,	 0.110000,	 1.000000,	 1000.000000,	 0.000000,	 300.000000,	 86129.212707,	 347.247603,	 2.879789 
0.345000,	 0.110000,	 1.000000,	 1000.000000,	 0.000000,	 300.000000,	 86129.212707,	 347.247603,	 2.879789 
0.375000,	 0.110000,	 1.000000,	 1000.000000,	 0.000000,	 300.000000,	 86129.212707,	 347.247603,	 2.879789 
0.405000,	 0.110000,	 1.000000,	 1000.000000,	 0.000000,	 300.000000,	 86129.212707,	 347.247603,	 2.879789 
0.435000,	 0.110000,	 1.000000,	 1000.000000,	 0.000000,	 300.000000,	 86129.212707,	 347.247603,	 2.879789 
0.465000,	 0.110000,	 1.000000,	 1000.000000,	 0.000000,	 300.000000,	 86129.212707,	 347.247603,	 2.879789 
0.495000,	 0.111113,	 1.000000,	 1000.000000,	 0.000000,	 300.000000,	 86129.212707,	 347.247603,	 2.879789 
0.525000,	 0.115562,	 1.000000,	 1000.000000,	 -0.000000,	 300.000000,	 86129.212707,	 347.247603,	 2.879789 
0.555000,	 0.122237,	 1.000000,	 1000.000000,	 -0.000000,	 300.000000,	 86129.212707,	 347.247603,	 2.879789 
0.585000,	 0.128912,	 1.000000,	 1000.000000,	 -0.000000,	 300.000000,	 86129.212707,	 347.247603,	 2.879789 
0.615000,	 0.135587,	 1.000000,	 1000.000000,	 -0.000000,	 300.000000,	 86129.212707,	 347.247603,	 2.879789 
0.645000,	 0.142263,	 1.000000,	 1000.000000,	 -0.000000,	 300.000000,	 86129.212707,	 347.247603,	 2.879789 
0.675000,	 0.148938,	 1.000000,	 1000.000000,	 0.000000,	 300.000000,	 86129.212707,	 347.247603,	 2.879789 