TITLE = "Final State"
VARIABLES = "X", "Y", "rho", "u", "v", "T", "p", "c", "M"
ZONE I=50, J=50, DATAPACKING=POINT
0.010000,	 0.000015,	 1.000000,	 10.000006,	 -0.000001,	 299.999985,	 86129.197379,	 347.247594,	 0.028798 
0.030000,	 0.000015,	 1.000000,	 9.999999,	 -0.000001,	 299.999977,	 86129.189874,	 347.247590,	 0.028798 
0.050000,	 0.000015,	 1.000000,	 9.999993,	 -0.000001,	 299.999975,	 86129.187527,	 347.247588,	 0.028798 
0.070000,	 0.000015,	 1.000000,	 9.999990,	 -0.000001,	 299.999973,	 86129.186084,	 347.247588,	 0.028798 
0.090000,	 0.000015,	 1.000000,	 9.999981,	 -0.000001,	 299.999973,	 86129.185243,	 347.247587,	 0.028798 
0.110000,	 0.000015,	 1.000000,	 9.999920,	 -0.000001,	 299.999973,	 86129.185123,	 347.247587,	 0.028798 
0.130000,	 0.000015,	 1.000000,	 9.999500,	 0.000004,	 299.999981,	 86129.187391,	 347.247592,	 0.028796 
0.150000,	 0.000015,	 1.000000,	 9.996065,	 0.000043,	 300.000042,	 86129.202152,	 347.247627,	 0.028787 
0.170000,	 0.000015,	 0.999999,	 9.970712,	 0.000351,	 300.000493,	 86129.273366,	 347.247888,	 0.028714 
0.190000,	 0.000015,	 0.999992,	 9.802948,	 0.002510,	 300.003686,	 86129.562601,	 347.249736,	 0.028230 
0.210000,	 0.000015,	 0.999937,	 8.811951,	 0.016302,	 300.024560,	 86130.869743,	 347.261817,	 0.025376 
0.230000,	 0.000015,	 1.000089,	 3.473436,	 -0.001988,	 299.999371,	 86136.678080,	 347.247239,	 0.010003 
0.250000,	 0.000015,	 1.000039,	 2.690169,	 -0.001560,	 300.008164,	 86134.955624,	 347.252328,	 0.007747 
0.270000,	 0.000015,	 1.000034,	 2.577946,	 -0.001561,	 300.009073,	 86134.788118,	 347.252854,	 0.007424 
0.290000,	 0.000015,	 1.000034,	 2.562662,	 -0.001570,	 300.009191,	 86134.798353,	 347.252922,	 0.007380 
0.310000,	 0.000015,	 1.000034,	 2.560721,	 -0.001573,	 300.009220,	 86134.818260,	 347.252939,	 0.007374 
0.330000,	 0.000015,	 1.000034,	 2.560502,	 -0.001573,	 300.009233,	 86134.830401,	 347.252947,	 0.007374 
0.350000,	 0.000015,	 1.000034,	 2.560476,	 -0.001572,	 300.009214,	 86134.809449,	 347.252935,	 0.007374 
0.370000,	 0.000015,	 1.000035,	 2.560467,	 -0.001573,	 300.009244,	 86134.840628,	 347.252953,	 0.007373 
0.390000,	 0.000015,	 1.000035,	 2.560473,	 -0.001573,	 300.009247,	 86134.842972,	 347.252954,	 0.007374 
0.410000,	 0.000015,	 1.000035,	 2.560479,	 -0.001573,	 300.009247,	 86134.844165,	 347.252955,	 0.007374 
0.430000,	 0.000015,	 1.000035,	 2.560484,	 -0.001573,	 300.009248,	 86134.844582,	 347.252955,	 0.007374 
0.450000,	 0.000015,	 1.000035,	 2.560487,	 -0.001573,	 300.009248,	 86134.844408,	 347.252955,	 0.007374 
0.470000,	 0.000015,	 1.000035,	 2.560482,	 -0.001573,	 300.009248,	 86134.844411,	 347.252955,	 0.007374 
0.490000,	 0.000015,	 1.000035,	 2.560477,	 -0.001573,	 300.009248,	 86134.843814,	 347.252955,	 0.007374 
0.510000,	 0.000015,	 1.000035,	 2.560476,	 -0.001574,	 300.009245,	 86134.841328,	 347.252953,	 0.007374 
0.530000,	 0.000015,	 1.000035,	 2.560475,	 -0.001573,	 300.009246,	 86134.842733,	 347.252954,	 0.007374 
0.550000,	 0.000015,	 1.000035,	 2.560486,	 -0.001573,	 300.009246,	 86134.842100,	 347.252954,	 0.007374 
0.570000,	 0.000015,	 1.000035,	 2.560488,	 -0.001573,	 300.009244,	 86134.841257,	 347.252953,	 0.007374 
0.590000,	 0.000015,	 1.000035,	 2.560486,	 -0.001573,	 300.009243,	 86134.840854,	 347.252952,	 0.007374 
0.610000,	 0.000015,	 1.000035,	 2.560482,	 -0.001573,	 300.009243,	 86134.839683,	 347.252952,	 0.007374 
0.630000,	 0.000015,	 1.000035,	 2.560482,	 -0.001573,	 300.009243,	 86134.839299,	 347.252952,	 0.007374 
0.650000,	 0.000015,	 1.000035,	 2.560483,	 -0.001573,	 300.009241,	 86134.838164,	 347.252951,	 0.007374 
0.670000,	 0.000015,	 1.000034,	 2.560480,	 -0.001573,	 300.009241,	 86134.837176,	 347.252951,	 0.007374 
0.690000,	 0.000015,	 1.000034,	 2.560480,	 -0.001573,	 300.009240,	 86134.836279,	 347.252951,	 0.007374 
0.710000,	 0.000015,	 1.000034,	 2.560481,	 -0.001573,	 300.009239,	 86134.835025,	 347.252950,	 0.007374 
0.730000,	 0.000015,	 1.000034,	 2.560477,	 -0.001573,	 300.009237,	 86134.833555,	 347.252949,	 0.007374 
0.750000,	 0.000015,	 1.000034,	 2.560478,	 -0.001573,	 300.009236,	 86134.832223,	 347.252948,	 0.007374 
0.770000,	 0.000015,	 1.000034,	 2.560482,	 -0.001573,	 300.009235,	 86134.830895,	 347.252947,	 0.007374 
0.790000,	 0.000015,	 1.000034,	 2.560484,	 -0.001573,	 300.009233,	 86134.829433,	 347.252946,	 0.007374 
0.810000,	 0.000015,	 1.000034,	 2.560484,	 -0.001573,	 300.009231,	 86134.827275,	 347.252945,	 0.007374 
0.830000,	 0.000015,	 1.000034,	 2.560484,	 -0.001573,	 300.009229,	 86134.825100,	 347.252944,	 0.007374 
0.850000,	 0.000015,	 1.000034,	 2.560488,	 -0.001573,	 300.009226,	 86134.822818,	 347.252942,	 0.007374 
0.870000,	 0.000015,	 1.000034,	 2.560491,	 -0.001573,	 300.009224,	 86134.820109,	 347.252941,	 0.007374 
0.890000,	 0.000015,	 1.000034,	 2.560514,	 -0.001573,	 300.009220,	 86134.816748,	 347.252939,	 0.007374 
0.910000,	 0.000015,	 1.000034,	 2.560667,	 -0.001574,	 300.009213,	 86134.811603,	 347.252935,	 0.007374 
0.930000,	 0.000015,	 1.000034,	 2.561921,	 -0.001578,	 300.009196,	 86134.800052,	 347.252925,	 0.007378 
0.950000,	 0.000015,	 1.000034,	 2.571964,	 -0.001622,	 300.009097,	 86134.763045,	 347.252868,	 0.007407 
0.970000,	 0.000015,	 1.000035,	 2.647467,	 -0.001998,	 300.008356,	 86134.649728,	 347.252439,	 0.007624 
0.990000,	 0.000015,	 1.000054,	 3.190289,	 -0.005030,	 300.001115,	 86134.171713,	 347.248249,	 0.009187 
0.010000,	 0.000047,	 1.000000,	 10.000007,	 -0.000002,	 299.999983,	 86129.197362,	 347.247593,	 0.028798 
0.030000,	 0.000047,	 1.000000,	 10.000000,	 -0.000002,	 299.999977,	 86129.189858,	 347.247590,	 0.028798 
0.050000,	 0.000047,	 1.000000,	 9.999993,	 -0.000002,	 299.999975,	 86129.187510,	 347.247588,	 0.028798 
0.070000,	 0.000047,	 1.000000,	 9.999990,	 -0.000002,	 299.999973,	 86129.186066,	 347.247588,	 0.028798 
0.090000,	 0.000047,	 1.000000,	 9.999979,	 -0.000002,	 299.999973,	 86129.185216,	 347.247587,	 0.028798 
0.110000,	 0.000047,	 1.000000,	 9.999905,	 -0.000001,	 299.999973,	 86129.185063,	 347.247588,	 0.028798 
0.130000,	 0.000047,	 1.000000,	 9.999337,	 0.000006,	 299.999982,	 86129.187393,	 347.247593,	 0.028796 
0.150000,	 0.000047,	 1.000000,	 9.995235,	 0.000062,	 300.000045,	 86129.203145,	 347.247629,	 0.028784 
0.170000,	 0.000047,	 0.999999,	 9.968789,	 0.000465,	 300.000428,	 86129.285779,	 347.247851,	 0.028708 
0.190000,	 0.000047,	 0.999997,	 9.822933,	 0.003021,	 300.002333,	 86129.656883,	 347.248953,	 0.028288 
0.210000,	 0.000047,	 0.999995,	 9.176821,	 0.017572,	 300.008814,	 86131.307579,	 347.252704,	 0.026427 
0.230000,	 0.000047,	 1.000045,	 7.222452,	 0.003296,	 299.998796,	 86132.735258,	 347.246906,	 0.020799 
0.250000,	 0.000047,	 1.000031,	 6.629706,	 -0.001591,	 300.003009,	 86132.706605,	 347.249345,	 0.019092 
0.270000,	 0.000047,	 1.000027,	 6.501723,	 -0.002362,	 300.004228,	 86132.727187,	 347.250050,	 0.018723 
0.290000,	 0.000047,	 1.000026,	 6.478961,	 -0.002482,	 300.004472,	 86132.754472,	 347.250191,	 0.018658 
0.310000,	 0.000047,	 1.000026,	 6.475461,	 -0.002501,	 300.004526,	 86132.775248,	 347.250222,	 0.018648 
0.330000,	 0.000047,	 1.000026,	 6.474980,	 -0.002503,	 300.004543,	 86132.787473,	 347.250232,	 0.018646 
0.350000,	 0.000047,	 1.000026,	 6.474921,	 -0.002501,	 300.004522,	 86132.766538,	 347.250220,	 0.018646 
0.370000,	 0.000047,	 1.000026,	 6.474923,	 -0.002503,	 300.004553,	 86132.797635,	 347.250238,	 0.018646 
0.390000,	 0.000047,	 1.000026,	 6.474912,	 -0.002504,	 300.004556,	 86132.799983,	 347.250240,	 0.018646 
0.410000,	 0.000047,	 1.000026,	 6.474917,	 -0.002503,	 300.004557,	 86132.801160,	 347.250240,	 0.018646 
0.430000,	 0.000047,	 1.000026,	 6.474922,	 -0.002503,	 300.004557,	 86132.801570,	 347.250241,	 0.018646 
0.450000,	 0.000047,	 1.000026,	 6.474924,	 -0.002503,	 300.004557,	 86132.801391,	 347.250240,	 0.018646 
0.470000,	 0.000047,	 1.000026,	 6.474925,	 -0.002503,	 300.004557,	 86132.801284,	 347.250240,	 0.018646 
0.490000,	 0.000047,	 1.000026,	 6.474935,	 -0.002504,	 300.004556,	 86132.800711,	 347.250240,	 0.018646 
0.510000,	 0.000047,	 1.000026,	 6.474896,	 -0.002507,	 300.004554,	 86132.798313,	 347.250239,	 0.018646 
0.530000,	 0.000047,	 1.000026,	 6.474909,	 -0.002504,	 300.004555,	 86132.799620,	 347.250239,	 0.018646 
0.550000,	 0.000047,	 1.000026,	 6.474924,	 -0.002503,	 300.004555,	 86132.799082,	 347.250239,	 0.018646 
0.570000,	 0.000047,	 1.000026,	 6.474928,	 -0.002503,	 300.004554,	 86132.798237,	 347.250239,	 0.018646 
0.590000,	 0.000047,	 1.000026,	 6.474922,	 -0.002503,	 300.004554,	 86132.797845,	 347.250238,	 0.018646 
0.610000,	 0.000047,	 1.000026,	 6.474920,	 -0.002503,	 300.004552,	 86132.796676,	 347.250238,	 0.018646 
0.630000,	 0.000047,	 1.000026,	 6.474922,	 -0.002503,	 300.004552,	 86132.796287,	 347.250237,	 0.018646 
0.650000,	 0.000047,	 1.000026,	 6.474923,	 -0.002503,	 300.004551,	 86132.795042,	 347.250237,	 0.018646 
0.670000,	 0.000047,	 1.000026,	 6.474919,	 -0.002503,	 300.004550,	 86132.794172,	 347.250236,	 0.018646 
0.690000,	 0.000047,	 1.000026,	 6.474920,	 -0.002503,	 300.004549,	 86132.793274,	 347.250236,	 0.018646 
0.710000,	 0.000047,	 1.000026,	 6.474926,	 -0.002503,	 300.004548,	 86132.792018,	 347.250235,	 0.018646 
0.730000,	 0.000047,	 1.000026,	 6.474927,	 -0.002503,	 300.004546,	 86132.790568,	 347.250234,	 0.018646 
0.750000,	 0.000047,	 1.000026,	 6.474921,	 -0.002503,	 300.004545,	 86132.789223,	 347.250233,	 0.018646 
0.770000,	 0.000047,	 1.000026,	 6.474922,	 -0.002504,	 300.004544,	 86132.787892,	 347.250233,	 0.018646 
0.790000,	 0.000047,	 1.000026,	 6.474925,	 -0.002503,	 300.004542,	 86132.786435,	 347.250232,	 0.018646 
0.810000,	 0.000047,	 1.000026,	 6.474926,	 -0.002503,	 300.004540,	 86132.784263,	 347.250231,	 0.018646 
0.830000,	 0.000047,	 1.000026,	 6.474926,	 -0.002503,	 300.004538,	 86132.782090,	 347.250229,	 0.018646 
0.850000,	 0.000047,	 1.000026,	 6.474931,	 -0.002503,	 300.004536,	 86132.779807,	 347.250228,	 0.018646 
0.870000,	 0.000047,	 1.000026,	 6.474937,	 -0.002503,	 300.004533,	 86132.776982,	 347.250226,	 0.018646 
0.890000,	 0.000047,	 1.000026,	 6.474981,	 -0.002504,	 300.004529,	 86132.773595,	 347.250224,	 0.018646 
0.910000,	 0.000047,	 1.000026,	 6.475283,	 -0.002505,	 300.004521,	 86132.768402,	 347.250220,	 0.018647 
0.930000,	 0.000047,	 1.000026,	 6.477509,	 -0.002518,	 300.004488,	 86132.755219,	 347.250200,	 0.018654 
0.950000,	 0.000047,	 1.000026,	 6.492634,	 -0.002613,	 300.004297,	 86132.704298,	 347.250090,	 0.018697 
0.970000,	 0.000047,	 1.000027,	 6.582841,	 -0.003225,	 300.003255,	 86132.495324,	 347.249487,	 0.018957 
0.990000,	 0.000047,	 1.000032,	 7.033482,	 -0.006648,	 299.998356,	 86131.536770,	 347.246651,	 0.020255 
0.010000,	 0.000086,	 1.000000,	 10.000008,	 -0.000003,	 299.999985,	 86129.197344,	 347.247594,	 0.028798 
0.030000,	 0.000086,	 1.000000,	 10.000000,	 -0.000003,	 299.999977,	 86129.189841,	 347.247590,	 0.028798 
0.050000,	 0.000086,	 1.000000,	 9.999993,	 -0.000002,	 299.999975,	 86129.187493,	 347.247588,	 0.028798 
0.070000,	 0.000086,	 1.000000,	 9.999988,	 -0.000002,	 299.999973,	 86129.186047,	 347.247588,	 0.028798 
0.090000,	 0.000086,	 1.000000,	 9.999978,	 -0.000002,	 299.999973,	 86129.185187,	 347.247587,	 0.028798 
0.110000,	 0.000086,	 1.000000,	 9.999915,	 -0.000001,	 299.999973,	 86129.184963,	 347.247587,	 0.028798 
0.130000,	 0.000086,	 1.000000,	 9.999481,	 0.000008,	 299.999980,	 86129.186826,	 347.247591,	 0.028796 
0.150000,	 0.000086,	 1.000000,	 9.996741,	 0.000080,	 300.000023,	 86129.199844,	 347.247616,	 0.028789 
0.170000,	 0.000086,	 1.000000,	 9.981524,	 0.000558,	 300.000247,	 86129.267805,	 347.247746,	 0.028745 
0.190000,	 0.000086,	 1.000000,	 9.910854,	 0.003420,	 300.001163,	 86129.563783,	 347.248276,	 0.028541 
0.210000,	 0.000086,	 1.000006,	 9.658772,	 0.018849,	 300.003762,	 86130.829709,	 347.249780,	 0.027815 
0.230000,	 0.000086,	 1.000015,	 9.097039,	 0.005826,	 300.000035,	 86130.516218,	 347.247623,	 0.026198 
0.250000,	 0.000086,	 1.000013,	 8.856750,	 -0.000260,	 300.000887,	 86130.552422,	 347.248116,	 0.025506 
0.270000,	 0.000086,	 1.000012,	 8.789573,	 -0.001502,	 300.001434,	 86130.644545,	 347.248433,	 0.025312 
0.290000,	 0.000086,	 1.000012,	 8.774978,	 -0.001732,	 300.001601,	 86130.687799,	 347.248530,	 0.025270 
0.310000,	 0.000086,	 1.000012,	 8.772323,	 -0.001770,	 300.001649,	 86130.710954,	 347.248558,	 0.025262 
0.330000,	 0.000086,	 1.000012,	 8.771907,	 -0.001776,	 300.001666,	 86130.723559,	 347.248567,	 0.025261 
0.350000,	 0.000086,	 1.000012,	 8.771843,	 -0.001776,	 300.001645,	 86130.701539,	 347.248555,	 0.025261 
0.370000,	 0.000086,	 1.000012,	 8.771849,	 -0.001777,	 300.001677,	 86130.733754,	 347.248574,	 0.025261 
0.390000,	 0.000086,	 1.000012,	 8.771849,	 -0.001777,	 300.001679,	 86130.736057,	 347.248575,	 0.025261 
0.410000,	 0.000086,	 1.000012,	 8.771848,	 -0.001777,	 300.001680,	 86130.737209,	 347.248576,	 0.025261 
0.430000,	 0.000086,	 1.000012,	 8.771851,	 -0.001777,	 300.001681,	 86130.737631,	 347.248576,	 0.025261 
0.450000,	 0.000086,	 1.000012,	 8.771851,	 -0.001777,	 300.001681,	 86130.737453,	 347.248576,	 0.025261 
0.470000,	 0.000086,	 1.000012,	 8.771852,	 -0.001777,	 300.001681,	 86130.737414,	 347.248576,	 0.025261 
0.490000,	 0.000086,	 1.000012,	 8.771860,	 -0.001777,	 300.001680,	 86130.736728,	 347.248575,	 0.025261 
0.510000,	 0.000086,	 1.000012,	 8.771866,	 -0.001782,	 300.001678,	 86130.734920,	 347.248574,	 0.025261 
0.530000,	 0.000086,	 1.000012,	 8.771847,	 -0.001777,	 300.001679,	 86130.735745,	 347.248575,	 0.025261 
0.550000,	 0.000086,	 1.000012,	 8.771852,	 -0.001777,	 300.001678,	 86130.735162,	 347.248574,	 0.025261 
0.570000,	 0.000086,	 1.000012,	 8.771856,	 -0.001777,	 300.001678,	 86130.734311,	 347.248574,	 0.025261 
0.590000,	 0.000086,	 1.000012,	 8.771858,	 -0.001777,	 300.001677,	 86130.733924,	 347.248574,	 0.025261 
0.610000,	 0.000086,	 1.000012,	 8.771852,	 -0.001777,	 300.001676,	 86130.732756,	 347.248573,	 0.025261 
0.630000,	 0.000086,	 1.000012,	 8.771852,	 -0.001777,	 300.001676,	 86130.732365,	 347.248573,	 0.025261 
0.650000,	 0.000086,	 1.000012,	 8.771852,	 -0.001777,	 300.001674,	 86130.731120,	 347.248572,	 0.025261 
0.670000,	 0.000086,	 1.000012,	 8.771850,	 -0.001777,	 300.001673,	 86130.730251,	 347.248572,	 0.025261 
0.690000,	 0.000086,	 1.000012,	 8.771851,	 -0.001777,	 300.001673,	 86130.729325,	 347.248571,	 0.025261 
0.710000,	 0.000086,	 1.000012,	 8.771856,	 -0.001777,	 300.001671,	 86130.728091,	 347.248570,	 0.025261 
0.730000,	 0.000086,	 1.000012,	 8.771856,	 -0.001777,	 300.001670,	 86130.726652,	 347.248569,	 0.025261 
0.750000,	 0.000086,	 1.000012,	 8.771853,	 -0.001777,	 300.001669,	 86130.725301,	 347.248569,	 0.025261 
0.770000,	 0.000086,	 1.000012,	 8.771854,	 -0.001777,	 300.001667,	 86130.723923,	 347.248568,	 0.025261 
0.790000,	 0.000086,	 1.000012,	 8.771856,	 -0.001777,	 300.001666,	 86130.722510,	 347.248567,	 0.025261 
0.810000,	 0.000086,	 1.000012,	 8.771857,	 -0.001777,	 300.001664,	 86130.720371,	 347.248566,	 0.025261 
0.830000,	 0.000086,	 1.000012,	 8.771857,	 -0.001777,	 300.001661,	 86130.718142,	 347.248565,	 0.025261 
0.850000,	 0.000086,	 1.000012,	 8.771860,	 -0.001777,	 300.001659,	 86130.715838,	 347.248563,	 0.025261 
0.870000,	 0.000086,	 1.000012,	 8.771868,	 -0.001777,	 300.001656,	 86130.713050,	 347.248562,	 0.025261 
0.890000,	 0.000086,	 1.000012,	 8.771908,	 -0.001777,	 300.001653,	 86130.709717,	 347.248559,	 0.025261 
0.910000,	 0.000086,	 1.000012,	 8.772166,	 -0.001780,	 300.001645,	 86130.704885,	 347.248555,	 0.025262 
0.930000,	 0.000086,	 1.000012,	 8.773846,	 -0.001801,	 300.001619,	 86130.693688,	 347.248540,	 0.025267 
0.950000,	 0.000086,	 1.000012,	 8.783675,	 -0.001940,	 300.001492,	 86130.653191,	 347.248466,	 0.025295 
0.970000,	 0.000086,	 1.000012,	 8.832790,	 -0.002743,	 300.000967,	 86130.496256,	 347.248163,	 0.025437 
0.990000,	 0.000086,	 1.000010,	 9.028927,	 -0.006791,	 299.999127,	 86129.853071,	 347.247098,	 0.026001 
0.010000,	 0.000130,	 1.000000,	 10.000009,	 -0.000003,	 299.999985,	 86129.197320,	 347.247594,	 0.028798 
0.030000,	 0.000130,	 1.000000,	 10.000000,	 -0.000003,	 299.999977,	 86129.189818,	 347.247590,	 0.028798 
0.050000,	 0.000130,	 1.000000,	 9.999992,	 -0.000003,	 299.999975,	 86129.187469,	 347.247588,	 0.028798 
0.070000,	 0.000130,	 1.000000,	 9.999987,	 -0.000003,	 299.999973,	 86129.186020,	 347.247588,	 0.028798 
0.090000,	 0.000130,	 1.000000,	 9.999979,	 -0.000003,	 299.999973,	 86129.185138,	 347.247587,	 0.028798 
0.110000,	 0.000130,	 1.000000,	 9.999939,	 -0.000002,	 299.999973,	 86129.184766,	 347.247587,	 0.028798 
0.130000,	 0.000130,	 1.000000,	 9.999711,	 0.000010,	 299.999976,	 86129.185713,	 347.247589,	 0.028797 
0.150000,	 0.000130,	 1.000000,	 9.998484,	 0.000090,	 299.999994,	 86129.193653,	 347.247599,	 0.028794 
0.170000,	 0.000130,	 1.000000,	 9.992693,	 0.000612,	 300.000078,	 86129.237168,	 347.247648,	 0.028777 
0.190000,	 0.000130,	 1.000001,	 9.969986,	 0.003641,	 300.000387,	 86129.434407,	 347.247827,	 0.028711 
0.210000,	 0.000130,	 1.000009,	 9.903102,	 0.019526,	 300.001403,	 86130.388485,	 347.248415,	 0.028519 
0.230000,	 0.000130,	 1.000003,	 9.780079,	 0.007076,	 300.000092,	 86129.497875,	 347.247656,	 0.028165 
0.250000,	 0.000130,	 1.000002,	 9.714656,	 0.000808,	 300.000106,	 86129.431924,	 347.247664,	 0.027976 
0.270000,	 0.000130,	 1.000003,	 9.692133,	 -0.000578,	 300.000292,	 86129.524332,	 347.247772,	 0.027911 
0.290000,	 0.000130,	 1.000003,	 9.686271,	 -0.000857,	 300.000379,	 86129.571809,	 347.247822,	 0.027894 
0.310000,	 0.000130,	 1.000003,	 9.685020,	 -0.000907,	 300.000414,	 86129.596144,	 347.247843,	 0.027891 
0.330000,	 0.000130,	 1.000003,	 9.684799,	 -0.000915,	 300.000429,	 86129.609043,	 347.247851,	 0.027890 
0.350000,	 0.000130,	 1.000003,	 9.684771,	 -0.000879,	 300.000422,	 86129.601931,	 347.247847,	 0.027890 
0.370000,	 0.000130,	 1.000003,	 9.684769,	 -0.000916,	 300.000439,	 86129.619295,	 347.247857,	 0.027890 
0.390000,	 0.000130,	 1.000003,	 9.684772,	 -0.000916,	 300.000442,	 86129.621588,	 347.247859,	 0.027890 
0.410000,	 0.000130,	 1.000003,	 9.684773,	 -0.000916,	 300.000443,	 86129.622706,	 347.247859,	 0.027890 
0.430000,	 0.000130,	 1.000003,	 9.684774,	 -0.000916,	 300.000443,	 86129.623100,	 347.247860,	 0.027890 
0.450000,	 0.000130,	 1.000003,	 9.684775,	 -0.000916,	 300.000443,	 86129.622922,	 347.247859,	 0.027890 
0.470000,	 0.000130,	 1.000003,	 9.684776,	 -0.000916,	 300.000443,	 86129.622958,	 347.247859,	 0.027890 
0.490000,	 0.000130,	 1.000003,	 9.684777,	 -0.000916,	 300.000442,	 86129.622226,	 347.247859,	 0.027890 
0.510000,	 0.000130,	 1.000003,	 9.684777,	 -0.000923,	 300.000441,	 86129.620893,	 347.247858,	 0.027890 
0.530000,	 0.000130,	 1.000003,	 9.684775,	 -0.000916,	 300.000441,	 86129.621273,	 347.247859,	 0.027890 
0.550000,	 0.000130,	 1.000003,	 9.684776,	 -0.000916,	 300.000441,	 86129.620649,	 347.247858,	 0.027890 
0.570000,	 0.000130,	 1.000003,	 9.684777,	 -0.000916,	 300.000440,	 86129.619837,	 347.247858,	 0.027890 
0.590000,	 0.000130,	 1.000003,	 9.684778,	 -0.000916,	 300.000440,	 86129.619405,	 347.247857,	 0.027890 
0.610000,	 0.000130,	 1.000003,	 9.684777,	 -0.000916,	 300.000438,	 86129.618239,	 347.247857,	 0.027890 
0.630000,	 0.000130,	 1.000003,	 9.684777,	 -0.000916,	 300.000438,	 86129.617850,	 347.247857,	 0.027890 
0.650000,	 0.000130,	 1.000003,	 9.684777,	 -0.000916,	 300.000437,	 86129.616607,	 347.247856,	 0.027890 
0.670000,	 0.000130,	 1.000003,	 9.684776,	 -0.000916,	 300.000436,	 86129.615737,	 347.247855,	 0.027890 
0.690000,	 0.000130,	 1.000003,	 9.684777,	 -0.000916,	 300.000435,	 86129.614784,	 347.247855,	 0.027890 
0.710000,	 0.000130,	 1.000003,	 9.684779,	 -0.000916,	 300.000434,	 86129.613577,	 347.247854,	 0.027890 
0.730000,	 0.000130,	 1.000003,	 9.684780,	 -0.000916,	 300.000432,	 86129.612142,	 347.247853,	 0.027890 
0.750000,	 0.000130,	 1.000003,	 9.684779,	 -0.000916,	 300.000431,	 86129.610786,	 347.247852,	 0.027890 
0.770000,	 0.000130,	 1.000003,	 9.684780,	 -0.000916,	 300.000430,	 86129.609413,	 347.247852,	 0.027890 
0.790000,	 0.000130,	 1.000003,	 9.684781,	 -0.000916,	 300.000428,	 86129.607970,	 347.247851,	 0.027890 
0.810000,	 0.000130,	 1.000003,	 9.684782,	 -0.000916,	 300.000426,	 86129.605886,	 347.247850,	 0.027890 
0.830000,	 0.000130,	 1.000003,	 9.684783,	 -0.000916,	 300.000424,	 86129.603593,	 347.247848,	 0.027890 
0.850000,	 0.000130,	 1.000003,	 9.684785,	 -0.000916,	 300.000422,	 86129.601333,	 347.247847,	 0.027890 
0.870000,	 0.000130,	 1.000003,	 9.684791,	 -0.000916,	 300.000419,	 86129.598535,	 347.247845,	 0.027890 
0.890000,	 0.000130,	 1.000003,	 9.684817,	 -0.000917,	 300.000415,	 86129.595286,	 347.247843,	 0.027890 
0.910000,	 0.000130,	 1.000003,	 9.684957,	 -0.000920,	 300.000410,	 86129.590993,	 347.247840,	 0.027891 
0.930000,	 0.000130,	 1.000003,	 9.685743,	 -0.000947,	 300.000395,	 86129.582709,	 347.247832,	 0.027893 
0.950000,	 0.000130,	 1.000003,	 9.689696,	 -0.001110,	 300.000340,	 86129.556823,	 347.247800,	 0.027904 
0.970000,	 0.000130,	 1.000002,	 9.706544,	 -0.002017,	 300.000150,	 86129.462705,	 347.247690,	 0.027953 
0.990000,	 0.000130,	 1.000000,	 9.763027,	 -0.006410,	 299.999486,	 86129.078579,	 347.247306,	 0.028115 
0.010000,	 0.000182,	 1.000000,	 10.000009,	 -0.000004,	 299.999985,	 86129.197292,	 347.247594,	 0.028798 
0.030000,	 0.000182,	 1.000000,	 10.000000,	 -0.000004,	 299.999977,	 86129.189792,	 347.247590,	 0.028798 
0.050000,	 0.000182,	 1.000000,	 9.999991,	 -0.000004,	 299.999975,	 86129.187442,	 347.247588,	 0.028798 
0.070000,	 0.000182,	 1.000000,	 9.999986,	 -0.000004,	 299.999973,	 86129.185991,	 347.247588,	 0.028798 
0.090000,	 0.000182,	 1.000000,	 9.999978,	 -0.000003,	 299.999972,	 86129.185094,	 347.247587,	 0.028798 
0.110000,	 0.000182,	 1.000000,	 9.999953,	 -0.000002,	 299.999972,	 86129.184631,	 347.247587,	 0.028798 
0.130000,	 0.000182,	 1.000000,	 9.999844,	 0.000010,	 299.999974,	 86129.185115,	 347.247588,	 0.028797 
0.150000,	 0.000182,	 1.000000,	 9.999376,	 0.000094,	 299.999983,	 86129.190487,	 347.247593,	 0.028796 
0.170000,	 0.000182,	 1.000000,	 9.997620,	 0.000630,	 300.000027,	 86129.223324,	 347.247618,	 0.028791 
0.190000,	 0.000182,	 1.000001,	 9.992196,	 0.003709,	 300.000206,	 86129.383191,	 347.247722,	 0.028775 
0.210000,	 0.000182,	 1.000009,	 9.980466,	 0.019713,	 300.001011,	 86130.239825,	 347.248188,	 0.028742 
0.230000,	 0.000182,	 1.000000,	 9.961119,	 0.007487,	 299.999987,	 86129.180972,	 347.247595,	 0.028686 
0.250000,	 0.000182,	 0.999999,	 9.947614,	 0.001235,	 299.999840,	 86129.061739,	 347.247511,	 0.028647 
0.270000,	 0.000182,	 0.999999,	 9.941873,	 -0.000175,	 299.999928,	 86129.145329,	 347.247561,	 0.028631 
0.290000,	 0.000182,	 1.000000,	 9.940073,	 -0.000467,	 299.999985,	 86129.192479,	 347.247594,	 0.028625 
0.310000,	 0.000182,	 1.000000,	 9.939623,	 -0.000521,	 300.000013,	 86129.217052,	 347.247610,	 0.028624 
0.330000,	 0.000182,	 1.000000,	 9.939536,	 -0.000530,	 300.000027,	 86129.230071,	 347.247618,	 0.028624 
0.350000,	 0.000182,	 1.000000,	 9.939528,	 -0.000532,	 300.000034,	 86129.236735,	 347.247622,	 0.028624 
0.370000,	 0.000182,	 1.000000,	 9.939533,	 -0.000532,	 300.000037,	 86129.240333,	 347.247625,	 0.028624 
0.390000,	 0.000182,	 1.000000,	 9.939537,	 -0.000532,	 300.000039,	 86129.242608,	 347.247626,	 0.028624 
0.410000,	 0.000182,	 1.000000,	 9.939540,	 -0.000532,	 300.000041,	 86129.243764,	 347.247627,	 0.028624 
0.430000,	 0.000182,	 1.000000,	 9.939541,	 -0.000532,	 300.000041,	 86129.244123,	 347.247627,	 0.028624 
0.450000,	 0.000182,	 1.000000,	 9.939542,	 -0.000532,	 300.000041,	 86129.243944,	 347.247627,	 0.028624 
0.470000,	 0.000182,	 1.000000,	 9.939543,	 -0.000532,	 300.000041,	 86129.243981,	 347.247627,	 0.028624 
0.490000,	 0.000182,	 1.000000,	 9.939543,	 -0.000532,	 300.000040,	 86129.243258,	 347.247626,	 0.028624 
0.510000,	 0.000182,	 1.000000,	 9.939543,	 -0.000538,	 300.000039,	 86129.241921,	 347.247625,	 0.028624 
0.530000,	 0.000182,	 1.000000,	 9.939542,	 -0.000532,	 300.000039,	 86129.242330,	 347.247626,	 0.028624 
0.550000,	 0.000182,	 1.000000,	 9.939543,	 -0.000532,	 300.000039,	 86129.241688,	 347.247625,	 0.028624 
0.570000,	 0.000182,	 1.000000,	 9.939543,	 -0.000532,	 300.000038,	 86129.240896,	 347.247625,	 0.028624 
0.590000,	 0.000182,	 1.000000,	 9.939544,	 -0.000532,	 300.000037,	 86129.240429,	 347.247625,	 0.028624 
0.610000,	 0.000182,	 1.000000,	 9.939544,	 -0.000532,	 300.000036,	 86129.239261,	 347.247624,	 0.028624 
0.630000,	 0.000182,	 1.000000,	 9.939544,	 -0.000532,	 300.000036,	 86129.238872,	 347.247624,	 0.028624 
0.650000,	 0.000182,	 1.000000,	 9.939544,	 -0.000532,	 300.000035,	 86129.237630,	 347.247623,	 0.028624 
0.670000,	 0.000182,	 1.000000,	 9.939544,	 -0.000532,	 300.000034,	 86129.236758,	 347.247622,	 0.028624 
0.690000,	 0.000182,	 1.000000,	 9.939545,	 -0.000532,	 300.000033,	 86129.235808,	 347.247622,	 0.028624 
0.710000,	 0.000182,	 1.000000,	 9.939546,	 -0.000532,	 300.000032,	 86129.234618,	 347.247621,	 0.028624 
0.730000,	 0.000182,	 1.000000,	 9.939547,	 -0.000531,	 300.000030,	 86129.233168,	 347.247620,	 0.028624 
0.750000,	 0.000182,	 1.000000,	 9.939547,	 -0.000531,	 300.000029,	 86129.231826,	 347.247620,	 0.028624 
0.770000,	 0.000182,	 1.000000,	 9.939548,	 -0.000532,	 300.000027,	 86129.230434,	 347.247619,	 0.028624 
0.790000,	 0.000182,	 1.000000,	 9.939549,	 -0.000532,	 300.000026,	 86129.228985,	 347.247618,	 0.028624 
0.810000,	 0.000182,	 1.000000,	 9.939551,	 -0.000532,	 300.000024,	 86129.226911,	 347.247617,	 0.028624 
0.830000,	 0.000182,	 1.000000,	 9.939552,	 -0.000531,	 300.000022,	 86129.224626,	 347.247615,	 0.028624 
0.850000,	 0.000182,	 1.000000,	 9.939554,	 -0.000531,	 300.000019,	 86129.222358,	 347.247614,	 0.028624 
0.870000,	 0.000182,	 1.000000,	 9.939559,	 -0.000531,	 300.000017,	 86129.219572,	 347.247613,	 0.028624 
0.890000,	 0.000182,	 1.000000,	 9.939573,	 -0.000532,	 300.000013,	 86129.216385,	 347.247611,	 0.028624 
0.910000,	 0.000182,	 1.000000,	 9.939634,	 -0.000536,	 300.000009,	 86129.212444,	 347.247608,	 0.028624 
0.930000,	 0.000182,	 1.000000,	 9.939911,	 -0.000565,	 300.000000,	 86129.205972,	 347.247603,	 0.028625 
0.950000,	 0.000182,	 1.000000,	 9.941070,	 -0.000739,	 299.999975,	 86129.188094,	 347.247589,	 0.028628 
0.970000,	 0.000182,	 0.999999,	 9.945207,	 -0.001686,	 299.999893,	 86129.124109,	 347.247541,	 0.028640 
0.990000,	 0.000182,	 0.999997,	 9.956741,	 -0.006214,	 299.999565,	 86128.846740,	 347.247352,	 0.028673 
0.010000,	 0.000244,	 1.000000,	 10.000010,	 -0.000005,	 299.999985,	 86129.197262,	 347.247594,	 0.028798 
0.030000,	 0.000244,	 1.000000,	 10.000000,	 -0.000005,	 299.999977,	 86129.189763,	 347.247590,	 0.028798 
0.050000,	 0.000244,	 1.000000,	 9.999990,	 -0.000004,	 299.999975,	 86129.187413,	 347.247588,	 0.028798 
0.070000,	 0.000244,	 1.000000,	 9.999984,	 -0.000004,	 299.999973,	 86129.185961,	 347.247588,	 0.028798 
0.090000,	 0.000244,	 1.000000,	 9.999975,	 -0.000004,	 299.999972,	 86129.185055,	 347.247587,	 0.028798 
0.110000,	 0.000244,	 1.000000,	 9.999953,	 -0.000003,	 299.999972,	 86129.184549,	 347.247587,	 0.028798 
0.130000,	 0.000244,	 1.000000,	 9.999877,	 0.000010,	 299.999973,	 86129.184859,	 347.247587,	 0.028798 
0.150000,	 0.000244,	 1.000000,	 9.999635,	 0.000095,	 299.999980,	 86129.189245,	 347.247591,	 0.028797 
0.170000,	 0.000244,	 1.000000,	 9.998990,	 0.000636,	 300.000013,	 86129.218490,	 347.247611,	 0.028795 
0.190000,	 0.000244,	 1.000001,	 9.997764,	 0.003727,	 300.000163,	 86129.367088,	 347.247697,	 0.028791 
0.210000,	 0.000244,	 1.000008,	 9.997630,	 0.019752,	 300.000926,	 86130.198603,	 347.248139,	 0.028791 
0.230000,	 0.000244,	 0.999999,	 9.996709,	 0.007582,	 299.999952,	 86129.110433,	 347.247575,	 0.028788 
0.250000,	 0.000244,	 0.999998,	 9.993788,	 0.001344,	 299.999775,	 86128.977947,	 347.247473,	 0.028780 
0.270000,	 0.000244,	 0.999999,	 9.992052,	 -0.000069,	 299.999842,	 86129.058155,	 347.247511,	 0.028775 
0.290000,	 0.000244,	 0.999999,	 9.991388,	 -0.000364,	 299.999892,	 86129.104813,	 347.247540,	 0.028773 
0.310000,	 0.000244,	 0.999999,	 9.991194,	 -0.000420,	 299.999918,	 86129.129364,	 347.247556,	 0.028773 
0.330000,	 0.000244,	 0.999999,	 9.991156,	 -0.000430,	 299.999932,	 86129.142392,	 347.247564,	 0.028772 
0.350000,	 0.000244,	 0.999999,	 9.991158,	 -0.000431,	 299.999939,	 86129.149061,	 347.247568,	 0.028772 
0.370000,	 0.000244,	 0.999999,	 9.991165,	 -0.000431,	 299.999942,	 86129.152677,	 347.247570,	 0.028772 
0.390000,	 0.000244,	 1.000000,	 9.991170,	 -0.000431,	 299.999945,	 86129.154945,	 347.247571,	 0.028772 
0.410000,	 0.000244,	 1.000000,	 9.991173,	 -0.000431,	 299.999946,	 86129.156093,	 347.247572,	 0.028772 
0.430000,	 0.000244,	 1.000000,	 9.991175,	 -0.000431,	 299.999946,	 86129.156452,	 347.247572,	 0.028772 
0.450000,	 0.000244,	 1.000000,	 9.991176,	 -0.000431,	 299.999946,	 86129.156274,	 347.247572,	 0.028772 
0.470000,	 0.000244,	 1.000000,	 9.991177,	 -0.000431,	 299.999946,	 86129.156320,	 347.247572,	 0.028772 
0.490000,	 0.000244,	 1.000000,	 9.991177,	 -0.000431,	 299.999945,	 86129.155591,	 347.247571,	 0.028772 
0.510000,	 0.000244,	 1.000000,	 9.991177,	 -0.000438,	 299.999944,	 86129.154295,	 347.247571,	 0.028772 
0.530000,	 0.000244,	 1.000000,	 9.991176,	 -0.000432,	 299.999944,	 86129.154661,	 347.247571,	 0.028772 
0.550000,	 0.000244,	 1.000000,	 9.991177,	 -0.000431,	 299.999944,	 86129.154044,	 347.247570,	 0.028772 
0.570000,	 0.000244,	 0.999999,	 9.991177,	 -0.000431,	 299.999943,	 86129.153237,	 347.247570,	 0.028772 