TITLE = "Final State"
VARIABLES = "X", "Y", "rho", "u", "v", "T", "p", "c", "M"
ZONE I=50, J=50, DATAPACKING=POINT
0.010000,	 0.000015,	 0.999983,	 9.942004,	 0.000210,	 300.021322,	 86133.890818,	 347.259943,	 0.028630 
0.030000,	 0.000015,	 1.000038,	 9.875037,	 -0.000107,	 300.004678,	 86133.795756,	 347.250311,	 0.028438 
0.050000,	 0.000015,	 1.000012,	 9.879918,	 0.000178,	 300.011922,	 86133.665231,	 347.254503,	 0.028452 
0.070000,	 0.000015,	 0.999969,	 9.829785,	 0.000482,	 300.024886,	 86133.650577,	 347.262005,	 0.028307 
0.090000,	 0.000015,	 1.000084,	 9.682101,	 -0.000346,	 299.990591,	 86133.712425,	 347.242158,	 0.027883 
0.110000,	 0.000015,	 1.000016,	 9.723757,	 0.000260,	 300.010209,	 86133.511962,	 347.253511,	 0.028002 
0.130000,	 0.000015,	 0.999978,	 9.658460,	 0.000387,	 300.021562,	 86133.485653,	 347.260082,	 0.027813 
0.150000,	 0.000015,	 0.999921,	 9.522317,	 0.000712,	 300.038385,	 86133.416594,	 347.269817,	 0.027421 
0.170000,	 0.000015,	 0.999785,	 9.269218,	 0.001589,	 300.078852,	 86133.309760,	 347.293235,	 0.026690 
0.190000,	 0.000015,	 0.999404,	 8.730109,	 0.004616,	 300.192766,	 86133.207216,	 347.359148,	 0.025133 
0.210000,	 0.000015,	 0.998777,	 7.269304,	 0.018214,	 300.383211,	 86133.720269,	 347.469314,	 0.020921 
0.230000,	 0.000015,	 0.999751,	 1.920270,	 -0.000573,	 300.104815,	 86137.811253,	 347.308259,	 0.005529 
0.250000,	 0.000015,	 1.000045,	 0.865794,	 -0.000006,	 300.008148,	 86135.439106,	 347.252318,	 0.002493 
0.270000,	 0.000015,	 0.999975,	 0.557838,	 0.000038,	 300.026749,	 86134.754911,	 347.263084,	 0.001606 
0.290000,	 0.000015,	 0.999932,	 0.426069,	 0.000030,	 300.038521,	 86134.451593,	 347.269896,	 0.001227 
0.310000,	 0.000015,	 0.999922,	 0.353749,	 0.000022,	 300.041055,	 86134.279714,	 347.271363,	 0.001019 
0.330000,	 0.000015,	 0.999919,	 0.308067,	 0.000016,	 300.041634,	 86134.166893,	 347.271698,	 0.000887 
0.350000,	 0.000015,	 0.999917,	 0.276721,	 0.000011,	 300.041808,	 86134.085716,	 347.271798,	 0.000797 
0.370000,	 0.000015,	 0.999916,	 0.254040,	 0.000009,	 300.041873,	 86134.023335,	 347.271836,	 0.000732 
0.390000,	 0.000015,	 0.999916,	 0.237034,	 0.000007,	 300.041886,	 86133.973193,	 347.271844,	 0.000683 
0.410000,	 0.000015,	 0.999915,	 0.223971,	 0.000005,	 300.041872,	 86133.931433,	 347.271835,	 0.000645 
0.430000,	 0.000015,	 0.999915,	 0.213777,	 0.000004,	 300.041881,	 86133.896169,	 347.271841,	 0.000616 
0.450000,	 0.000015,	 0.999915,	 0.205750,	 0.000003,	 300.041849,	 86133.865584,	 347.271822,	 0.000592 
0.470000,	 0.000015,	 0.999914,	 0.199418,	 0.000002,	 300.041843,	 86133.838731,	 347.271819,	 0.000574 
0.490000,	 0.000015,	 0.999914,	 0.194457,	 0.000002,	 300.041815,	 86133.814891,	 347.271802,	 0.000560 
0.510000,	 0.000015,	 0.999914,	 0.190656,	 0.000001,	 300.041775,	 86133.793711,	 347.271779,	 0.000549 
0.530000,	 0.000015,	 0.999914,	 0.187839,	 0.000000,	 300.041747,	 86133.774369,	 347.271763,	 0.000541 
0.550000,	 0.000015,	 0.999914,	 0.185896,	 -0.000000,	 300.041728,	 86133.757353,	 347.271752,	 0.000535 
0.570000,	 0.000015,	 0.999914,	 0.184760,	 -0.000001,	 300.041709,	 86133.741723,	 347.271741,	 0.000532 
0.590000,	 0.000015,	 0.999913,	 0.184394,	 -0.000001,	 300.041690,	 86133.727721,	 347.271730,	 0.000531 
0.610000,	 0.000015,	 0.999913,	 0.184783,	 -0.000002,	 300.041672,	 86133.714929,	 347.271719,	 0.000532 
0.630000,	 0.000015,	 0.999913,	 0.185940,	 -0.000002,	 300.041654,	 86133.703684,	 347.271709,	 0.000535 
0.650000,	 0.000015,	 0.999913,	 0.187904,	 -0.000003,	 300.041636,	 86133.693810,	 347.271699,	 0.000541 
0.670000,	 0.000015,	 0.999913,	 0.190742,	 -0.000003,	 300.041618,	 86133.685371,	 347.271689,	 0.000549 
0.690000,	 0.000015,	 0.999913,	 0.194552,	 -0.000004,	 300.041599,	 86133.677955,	 347.271677,	 0.000560 
0.710000,	 0.000015,	 0.999913,	 0.199474,	 -0.000005,	 300.041578,	 86133.672609,	 347.271665,	 0.000574 
0.730000,	 0.000015,	 0.999913,	 0.205699,	 -0.000006,	 300.041554,	 86133.668894,	 347.271651,	 0.000592 
0.750000,	 0.000015,	 0.999913,	 0.213486,	 -0.000007,	 300.041525,	 86133.667196,	 347.271635,	 0.000615 
0.770000,	 0.000015,	 0.999913,	 0.223184,	 -0.000009,	 300.041490,	 86133.668282,	 347.271614,	 0.000643 
0.790000,	 0.000015,	 0.999914,	 0.235281,	 -0.000011,	 300.041443,	 86133.672625,	 347.271587,	 0.000678 
0.810000,	 0.000015,	 0.999914,	 0.250456,	 -0.000013,	 300.041377,	 86133.681225,	 347.271549,	 0.000721 
0.830000,	 0.000015,	 0.999914,	 0.269694,	 -0.000017,	 300.041277,	 86133.695597,	 347.271491,	 0.000777 
0.850000,	 0.000015,	 0.999915,	 0.294466,	 -0.000023,	 300.041118,	 86133.717947,	 347.271399,	 0.000848 
0.870000,	 0.000015,	 0.999917,	 0.327071,	 -0.000031,	 300.040839,	 86133.751884,	 347.271238,	 0.000942 
0.890000,	 0.000015,	 0.999919,	 0.371328,	 -0.000044,	 300.040294,	 86133.803163,	 347.270922,	 0.001069 
0.910000,	 0.000015,	 0.999924,	 0.434108,	 -0.000068,	 300.039062,	 86133.882179,	 347.270209,	 0.001250 
0.930000,	 0.000015,	 0.999937,	 0.529328,	 -0.000120,	 300.035674,	 86134.009059,	 347.268248,	 0.001524 
0.950000,	 0.000015,	 0.999979,	 0.690775,	 -0.000267,	 300.023826,	 86134.224410,	 347.261392,	 0.001989 
0.970000,	 0.000015,	 1.000142,	 1.026137,	 -0.000877,	 299.976102,	 86134.609047,	 347.233772,	 0.002955 
0.990000,	 0.000015,	 1.001086,	 2.016835,	 -0.004398,	 299.695661,	 86135.244750,	 347.071423,	 0.005811 
0.010000,	 0.000047,	 1.000015,	 9.901574,	 0.000276,	 300.011839,	 86133.910749,	 347.254455,	 0.028514 
0.030000,	 0.000047,	 1.000027,	 9.837612,	 0.000007,	 300.007772,	 86133.775973,	 347.252101,	 0.028330 
0.050000,	 0.000047,	 1.000014,	 9.786444,	 0.000230,	 300.011518,	 86133.707039,	 347.254269,	 0.028182 
0.070000,	 0.000047,	 0.999996,	 9.705688,	 0.000600,	 300.016742,	 86133.696140,	 347.257292,	 0.027950 
0.090000,	 0.000047,	 1.000023,	 9.585072,	 -0.000110,	 300.008675,	 86133.653667,	 347.252624,	 0.027603 
0.110000,	 0.000047,	 0.999988,	 9.500216,	 0.000332,	 300.018839,	 86133.602750,	 347.258506,	 0.027358 
0.130000,	 0.000047,	 0.999938,	 9.349355,	 0.000651,	 300.033796,	 86133.574955,	 347.267162,	 0.026923 
0.150000,	 0.000047,	 0.999855,	 9.097593,	 0.001188,	 300.058802,	 86133.561637,	 347.281632,	 0.026197 
0.170000,	 0.000047,	 0.999691,	 8.670635,	 0.002455,	 300.108014,	 86133.592878,	 347.310110,	 0.024965 
0.190000,	 0.000047,	 0.999346,	 7.893901,	 0.006262,	 300.212415,	 86133.819240,	 347.370516,	 0.022725 
0.210000,	 0.000047,	 0.998819,	 6.380530,	 0.020912,	 300.374881,	 86135.025881,	 347.464496,	 0.018363 
0.230000,	 0.000047,	 0.999647,	 3.571293,	 0.005825,	 300.128388,	 86135.633924,	 347.321899,	 0.010282 
0.250000,	 0.000047,	 1.000086,	 2.222213,	 0.001374,	 299.994697,	 86135.102315,	 347.244534,	 0.006400 
0.270000,	 0.000047,	 1.000142,	 1.585035,	 0.000518,	 299.976631,	 86134.703859,	 347.234078,	 0.004565 
0.290000,	 0.000047,	 1.000062,	 1.248017,	 0.000273,	 299.999672,	 86134.450551,	 347.247413,	 0.003594 
0.310000,	 0.000047,	 1.000002,	 1.047384,	 0.000171,	 300.017014,	 86134.287591,	 347.257450,	 0.003016 
0.330000,	 0.000047,	 0.999975,	 0.916473,	 0.000117,	 300.024688,	 86134.175394,	 347.261891,	 0.002639 
0.350000,	 0.000047,	 0.999964,	 0.825269,	 0.000084,	 300.027763,	 86134.093088,	 347.263671,	 0.002376 
0.370000,	 0.000047,	 0.999959,	 0.758720,	 0.000063,	 300.029097,	 86134.029329,	 347.264442,	 0.002185 
0.390000,	 0.000047,	 0.999956,	 0.708565,	 0.000048,	 300.029750,	 86133.977908,	 347.264820,	 0.002040 
0.410000,	 0.000047,	 0.999954,	 0.669910,	 0.000037,	 300.030102,	 86133.935023,	 347.265024,	 0.001929 
0.430000,	 0.000047,	 0.999953,	 0.639676,	 0.000029,	 300.030275,	 86133.898793,	 347.265124,	 0.001842 
0.450000,	 0.000047,	 0.999953,	 0.615831,	 0.000022,	 300.030405,	 86133.867383,	 347.265199,	 0.001773 
0.470000,	 0.000047,	 0.999952,	 0.597015,	 0.000017,	 300.030465,	 86133.839817,	 347.265234,	 0.001719 
0.490000,	 0.000047,	 0.999952,	 0.582274,	 0.000013,	 300.030515,	 86133.815357,	 347.265263,	 0.001677 
0.510000,	 0.000047,	 0.999951,	 0.570916,	 0.000009,	 300.030561,	 86133.793600,	 347.265289,	 0.001644 
0.530000,	 0.000047,	 0.999951,	 0.562500,	 0.000005,	 300.030582,	 86133.773713,	 347.265302,	 0.001620 
0.550000,	 0.000047,	 0.999951,	 0.556706,	 0.000002,	 300.030586,	 86133.756179,	 347.265304,	 0.001603 
0.570000,	 0.000047,	 0.999951,	 0.553322,	 -0.000001,	 300.030583,	 86133.740036,	 347.265302,	 0.001593 
0.590000,	 0.000047,	 0.999950,	 0.552233,	 -0.000003,	 300.030573,	 86133.725508,	 347.265296,	 0.001590 
0.610000,	 0.000047,	 0.999950,	 0.553401,	 -0.000006,	 300.030557,	 86133.712164,	 347.265288,	 0.001594 
0.630000,	 0.000047,	 0.999950,	 0.556862,	 -0.000009,	 300.030537,	 86133.700322,	 347.265276,	 0.001604 
0.650000,	 0.000047,	 0.999950,	 0.562731,	 -0.000013,	 300.030510,	 86133.689782,	 347.265260,	 0.001620 
0.670000,	 0.000047,	 0.999950,	 0.571208,	 -0.000016,	 300.030477,	 86133.680585,	 347.265241,	 0.001645 
0.690000,	 0.000047,	 0.999950,	 0.582584,	 -0.000021,	 300.030434,	 86133.672278,	 347.265216,	 0.001678 
0.710000,	 0.000047,	 0.999950,	 0.597274,	 -0.000025,	 300.030378,	 86133.665868,	 347.265184,	 0.001720 
0.730000,	 0.000047,	 0.999951,	 0.615842,	 -0.000031,	 300.030304,	 86133.660853,	 347.265141,	 0.001773 
0.750000,	 0.000047,	 0.999951,	 0.639048,	 -0.000039,	 300.030204,	 86133.657526,	 347.265083,	 0.001840 
0.770000,	 0.000047,	 0.999951,	 0.667929,	 -0.000048,	 300.030063,	 86133.656534,	 347.265002,	 0.001923 
0.790000,	 0.000047,	 0.999952,	 0.703908,	 -0.000059,	 300.029861,	 86133.658150,	 347.264885,	 0.002027 
0.810000,	 0.000047,	 0.999953,	 0.748977,	 -0.000075,	 300.029559,	 86133.663080,	 347.264710,	 0.002157 
0.830000,	 0.000047,	 0.999955,	 0.805996,	 -0.000095,	 300.029088,	 86133.672347,	 347.264437,	 0.002321 
0.850000,	 0.000047,	 0.999958,	 0.879206,	 -0.000125,	 300.028312,	 86133.687308,	 347.263988,	 0.002532 
0.870000,	 0.000047,	 0.999962,	 0.975166,	 -0.000168,	 300.026954,	 86133.710006,	 347.263202,	 0.002808 
0.890000,	 0.000047,	 0.999971,	 1.104563,	 -0.000237,	 300.024396,	 86133.743042,	 347.261722,	 0.003181 
0.910000,	 0.000047,	 0.999989,	 1.286019,	 -0.000354,	 300.019142,	 86133.789801,	 347.258681,	 0.003703 
0.930000,	 0.000047,	 1.000029,	 1.554894,	 -0.000578,	 300.007348,	 86133.852835,	 347.251856,	 0.004478 
0.950000,	 0.000047,	 1.000125,	 1.985688,	 -0.001082,	 299.978971,	 86133.923242,	 347.235432,	 0.005719 
0.970000,	 0.000047,	 1.000353,	 2.753525,	 -0.002468,	 299.910623,	 86133.930730,	 347.195872,	 0.007931 
0.990000,	 0.000047,	 1.000933,	 4.297748,	 -0.007142,	 299.735390,	 86133.512122,	 347.094427,	 0.012382 
0.010000,	 0.000086,	 1.000021,	 9.861844,	 0.000399,	 300.010061,	 86133.926284,	 347.253425,	 0.028400 
0.030000,	 0.000086,	 1.000019,	 9.782113,	 0.000155,	 300.010230,	 86133.785627,	 347.253524,	 0.028170 
0.050000,	 0.000086,	 1.000009,	 9.694297,	 0.000386,	 300.013032,	 86133.737723,	 347.255145,	 0.027917 
0.070000,	 0.000086,	 0.999997,	 9.583354,	 0.000811,	 300.016781,	 86133.730314,	 347.257315,	 0.027597 
0.090000,	 0.000086,	 0.999989,	 9.442158,	 0.000171,	 300.018878,	 86133.672291,	 347.258529,	 0.027191 
0.110000,	 0.000086,	 0.999958,	 9.278567,	 0.000643,	 300.028153,	 86133.679282,	 347.263896,	 0.026719 
0.130000,	 0.000086,	 0.999906,	 9.048534,	 0.001135,	 300.043900,	 86133.686352,	 347.273009,	 0.026056 
0.150000,	 0.000086,	 0.999822,	 8.707560,	 0.001947,	 300.069066,	 86133.730795,	 347.287573,	 0.025073 
0.170000,	 0.000086,	 0.999687,	 8.187724,	 0.003659,	 300.110211,	 86133.859547,	 347.311381,	 0.023575 
0.190000,	 0.000086,	 0.999452,	 7.378512,	 0.008175,	 300.181901,	 86134.208568,	 347.352862,	 0.021242 
0.210000,	 0.000086,	 0.999046,	 6.140174,	 0.023813,	 300.307925,	 86135.350736,	 347.425768,	 0.017673 
0.230000,	 0.000086,	 0.999547,	 4.491975,	 0.009606,	 300.155625,	 86134.872092,	 347.337659,	 0.012933 
0.250000,	 0.000086,	 0.999975,	 3.318355,	 0.003397,	 300.026680,	 86134.720874,	 347.263044,	 0.009556 
0.270000,	 0.000086,	 1.000152,	 2.580860,	 0.001562,	 299.973033,	 86134.560153,	 347.231996,	 0.007433 
0.290000,	 0.000086,	 1.000149,	 2.116241,	 0.000871,	 299.973226,	 86134.398492,	 347.232108,	 0.006095 
0.310000,	 0.000086,	 1.000091,	 1.811077,	 0.000550,	 299.990444,	 86134.269251,	 347.242072,	 0.005216 
0.330000,	 0.000086,	 1.000040,	 1.600834,	 0.000377,	 300.005325,	 86134.169717,	 347.250685,	 0.004610 
0.350000,	 0.000086,	 1.000009,	 1.449739,	 0.000271,	 300.014328,	 86134.092152,	 347.255895,	 0.004175 
0.370000,	 0.000086,	 0.999992,	 1.337419,	 0.000203,	 300.019177,	 86134.030039,	 347.258701,	 0.003851 
0.390000,	 0.000086,	 0.999983,	 1.251740,	 0.000155,	 300.021779,	 86133.978959,	 347.260207,	 0.003605 
0.410000,	 0.000086,	 0.999977,	 1.185138,	 0.000120,	 300.023242,	 86133.935848,	 347.261054,	 0.003413 
0.430000,	 0.000086,	 0.999974,	 1.132723,	 0.000094,	 300.024109,	 86133.899094,	 347.261556,	 0.003262 
0.450000,	 0.000086,	 0.999972,	 1.091226,	 0.000074,	 300.024644,	 86133.867104,	 347.261865,	 0.003142 
0.470000,	 0.000086,	 0.999970,	 1.058376,	 0.000057,	 300.024987,	 86133.838935,	 347.262064,	 0.003048 
0.490000,	 0.000086,	 0.999969,	 1.032579,	 0.000043,	 300.025212,	 86133.813806,	 347.262194,	 0.002973 
0.510000,	 0.000086,	 0.999969,	 1.012702,	 0.000031,	 300.025360,	 86133.791448,	 347.262279,	 0.002916 
0.530000,	 0.000086,	 0.999968,	 0.997955,	 0.000021,	 300.025455,	 86133.770960,	 347.262335,	 0.002874 
0.550000,	 0.000086,	 0.999968,	 0.987793,	 0.000011,	 300.025514,	 86133.752750,	 347.262369,	 0.002845 
0.570000,	 0.000086,	 0.999967,	 0.981860,	 0.000002,	 300.025543,	 86133.735926,	 347.262386,	 0.002827 
0.590000,	 0.000086,	 0.999967,	 0.979961,	 -0.000007,	 300.025548,	 86133.720665,	 347.262389,	 0.002822 
0.610000,	 0.000086,	 0.999967,	 0.982034,	 -0.000015,	 300.025530,	 86133.706539,	 347.262378,	 0.002828 
0.630000,	 0.000086,	 0.999967,	 0.988144,	 -0.000025,	 300.025492,	 86133.693798,	 347.262356,	 0.002846 
0.650000,	 0.000086,	 0.999967,	 0.998490,	 -0.000035,	 300.025433,	 86133.682264,	 347.262322,	 0.002875 
0.670000,	 0.000086,	 0.999967,	 1.013417,	 -0.000046,	 300.025347,	 86133.671872,	 347.262272,	 0.002918 
0.690000,	 0.000086,	 0.999968,	 1.033432,	 -0.000058,	 300.025228,	 86133.662197,	 347.262203,	 0.002976 
0.710000,	 0.000086,	 0.999968,	 1.059246,	 -0.000073,	 300.025067,	 86133.654082,	 347.262110,	 0.003050 
0.730000,	 0.000086,	 0.999969,	 1.091828,	 -0.000091,	 300.024847,	 86133.646956,	 347.261983,	 0.003144 
0.750000,	 0.000086,	 0.999970,	 1.132482,	 -0.000112,	 300.024543,	 86133.641002,	 347.261807,	 0.003261 
0.770000,	 0.000086,	 0.999971,	 1.182964,	 -0.000139,	 300.024118,	 86133.636597,	 347.261561,	 0.003407 
0.790000,	 0.000086,	 0.999973,	 1.245677,	 -0.000173,	 300.023510,	 86133.633772,	 347.261209,	 0.003587 
0.810000,	 0.000086,	 0.999976,	 1.323945,	 -0.000217,	 300.022615,	 86133.632692,	 347.260691,	 0.003813 
0.830000,	 0.000086,	 0.999980,	 1.422479,	 -0.000277,	 300.021257,	 86133.633620,	 347.259905,	 0.004096 
0.850000,	 0.000086,	 0.999988,	 1.548137,	 -0.000360,	 300.019120,	 86133.636617,	 347.258668,	 0.004458 
0.870000,	 0.000086,	 0.999999,	 1.711238,	 -0.000479,	 300.015614,	 86133.641450,	 347.256640,	 0.004928 
0.890000,	 0.000086,	 1.000019,	 1.927936,	 -0.000662,	 300.009614,	 86133.646567,	 347.253167,	 0.005552 
0.910000,	 0.000086,	 1.000055,	 2.224670,	 -0.000958,	 299.998924,	 86133.647389,	 347.246980,	 0.006407 
0.930000,	 0.000086,	 1.000120,	 2.646781,	 -0.001477,	 299.979378,	 86133.631115,	 347.235668,	 0.007622 
0.950000,	 0.000086,	 1.000238,	 3.275120,	 -0.002487,	 299.943808,	 86133.561558,	 347.215081,	 0.009433 
0.970000,	 0.000086,	 1.000437,	 4.254804,	 -0.004742,	 299.883371,	 86133.339508,	 347.180098,	 0.012255 
0.990000,	 0.000086,	 1.000669,	 5.823019,	 -0.010733,	 299.811486,	 86132.705641,	 347.138484,	 0.016774 
0.010000,	 0.000130,	 1.000017,	 9.820968,	 0.000590,	 300.011324,	 86133.945714,	 347.254157,	 0.028282 
0.030000,	 0.000130,	 1.000011,	 9.719563,	 0.000377,	 300.012785,	 86133.807968,	 347.255002,	 0.027990 
0.050000,	 0.000130,	 1.000001,	 9.602412,	 0.000644,	 300.015616,	 86133.771582,	 347.256640,	 0.027652 
0.070000,	 0.000130,	 0.999987,	 9.461250,	 0.001132,	 300.019672,	 86133.772159,	 347.258988,	 0.027246 
0.090000,	 0.000130,	 0.999969,	 9.287331,	 0.000579,	 300.025092,	 86133.722129,	 347.262125,	 0.026744 
0.110000,	 0.000130,	 0.999938,	 9.070977,	 0.001154,	 300.034434,	 86133.763450,	 347.267531,	 0.026121 
0.130000,	 0.000130,	 0.999891,	 8.785980,	 0.001837,	 300.048689,	 86133.805271,	 347.275781,	 0.025300 
0.150000,	 0.000130,	 0.999824,	 8.398005,	 0.002937,	 300.069133,	 86133.892040,	 347.287611,	 0.024182 
0.170000,	 0.000130,	 0.999731,	 7.863278,	 0.005059,	 300.097695,	 86134.065298,	 347.304139,	 0.022641 
0.190000,	 0.000130,	 0.999589,	 7.132877,	 0.010112,	 300.141592,	 86134.421541,	 347.329539,	 0.020536 
0.210000,	 0.000130,	 0.999286,	 6.183790,	 0.026327,	 300.235843,	 86135.420876,	 347.384070,	 0.017801 
0.230000,	 0.000130,	 0.999538,	 5.103886,	 0.012475,	 300.157155,	 86134.522051,	 347.338544,	 0.014694 
0.250000,	 0.000130,	 0.999864,	 4.181086,	 0.005503,	 300.058920,	 86134.434624,	 347.281701,	 0.012039 
0.270000,	 0.000130,	 1.000074,	 3.484332,	 0.002953,	 299.995816,	 86134.396450,	 347.245181,	 0.010034 
0.290000,	 0.000130,	 1.000149,	 2.978962,	 0.001792,	 299.973023,	 86134.314203,	 347.231990,	 0.008579 
0.310000,	 0.000130,	 1.000141,	 2.612855,	 0.001183,	 299.975211,	 86134.226920,	 347.233256,	 0.007525 
0.330000,	 0.000130,	 1.000103,	 2.343607,	 0.000828,	 299.986333,	 86134.148320,	 347.239693,	 0.006749 
0.350000,	 0.000130,	 1.000065,	 2.141580,	 0.000605,	 299.997462,	 86134.081043,	 347.246134,	 0.006167 
0.370000,	 0.000130,	 1.000037,	 1.986997,	 0.000456,	 300.005759,	 86134.023925,	 347.250936,	 0.005722 
0.390000,	 0.000130,	 1.000018,	 1.866724,	 0.000351,	 300.011254,	 86133.975157,	 347.254116,	 0.005376 
0.410000,	 0.000130,	 1.000006,	 1.771934,	 0.000274,	 300.014744,	 86133.932957,	 347.256136,	 0.005103 
0.430000,	 0.000130,	 0.999998,	 1.696592,	 0.000216,	 300.016955,	 86133.896406,	 347.257415,	 0.004886 
0.450000,	 0.000130,	 0.999993,	 1.636493,	 0.000170,	 300.018376,	 86133.864167,	 347.258238,	 0.004713 
0.470000,	 0.000130,	 0.999989,	 1.588652,	 0.000133,	 300.019308,	 86133.835559,	 347.258777,	 0.004575 
0.490000,	 0.000130,	 0.999987,	 1.550929,	 0.000101,	 300.019932,	 86133.809790,	 347.259138,	 0.004466 
0.510000,	 0.000130,	 0.999985,	 1.521783,	 0.000075,	 300.020355,	 86133.786736,	 347.259383,	 0.004382 
0.530000,	 0.000130,	 0.999984,	 1.500118,	 0.000051,	 300.020638,	 86133.765523,	 347.259547,	 0.004320 
0.550000,	 0.000130,	 0.999983,	 1.485174,	 0.000030,	 300.020824,	 86133.746427,	 347.259655,	 0.004277 
0.570000,	 0.000130,	 0.999983,	 1.476455,	 0.000009,	 300.020935,	 86133.728684,	 347.259719,	 0.004252 
0.590000,	 0.000130,	 0.999982,	 1.473691,	 -0.000011,	 300.020984,	 86133.712384,	 347.259747,	 0.004244 
0.610000,	 0.000130,	 0.999982,	 1.476803,	 -0.000031,	 300.020978,	 86133.697165,	 347.259744,	 0.004253 
0.630000,	 0.000130,	 0.999982,	 1.485885,	 -0.000052,	 300.020922,	 86133.683101,	 347.259711,	 0.004279 
0.650000,	 0.000130,	 0.999982,	 1.501229,	 -0.000074,	 300.020814,	 86133.670072,	 347.259649,	 0.004323 
0.670000,	 0.000130,	 0.999983,	 1.523325,	 -0.000099,	 300.020646,	 86133.657864,	 347.259552,	 0.004387 
0.690000,	 0.000130,	 0.999983,	 1.552902,	 -0.000127,	 300.020407,	 86133.646120,	 347.259413,	 0.004472 
0.710000,	 0.000130,	 0.999984,	 1.590973,	 -0.000159,	 300.020076,	 86133.635441,	 347.259221,	 0.004582 
0.730000,	 0.000130,	 0.999986,	 1.638903,	 -0.000198,	 300.019621,	 86133.625121,	 347.258958,	 0.004720 
0.750000,	 0.000130,	 0.999988,	 1.698518,	 -0.000244,	 300.018997,	 86133.615259,	 347.258597,	 0.004891 
0.770000,	 0.000130,	 0.999991,	 1.772254,	 -0.000302,	 300.018133,	 86133.605734,	 347.258097,	 0.005104 
0.790000,	 0.000130,	 0.999994,	 1.863393,	 -0.000375,	 300.016920,	 86133.596309,	 347.257395,	 0.005366 
0.810000,	 0.000130,	 1.000000,	 1.976395,	 -0.000470,	 300.015185,	 86133.586519,	 347.256391,	 0.005691 
0.830000,	 0.000130,	 1.000008,	 2.117435,	 -0.000595,	 300.012656,	 86133.575615,	 347.254927,	 0.006098 
0.850000,	 0.000130,	 1.000021,	 2.295214,	 -0.000766,	 300.008886,	 86133.562230,	 347.252746,	 0.006610 
0.870000,	 0.000130,	 1.000040,	 2.522266,	 -0.001007,	 300.003156,	 86133.543794,	 347.249430,	 0.007264 
0.890000,	 0.000130,	 1.000069,	 2.817034,	 -0.001361,	 299.994311,	 86133.515273,	 347.244310,	 0.008113 
0.910000,	 0.000130,	 1.000114,	 3.207176,	 -0.001906,	 299.980595,	 86133.466863,	 347.236372,	 0.009236 
0.930000,	 0.000130,	 1.000183,	 3.734511,	 -0.002794,	 299.959671,	 86133.379514,	 347.224262,	 0.010755 
0.950000,	 0.000130,	 1.000281,	 4.461259,	 -0.004348,	 299.929540,	 86133.215154,	 347.206822,	 0.012849 
0.970000,	 0.000130,	 1.000402,	 5.473328,	 -0.007384,	 299.892332,	 86132.898411,	 347.185285,	 0.015765 
0.990000,	 0.000130,	 1.000468,	 6.863935,	 -0.014328,	 299.870434,	 86132.275852,	 347.172609,	 0.019771 
0.010000,	 0.000182,	 1.000011,	 9.781023,	 0.000869,	 300.013176,	 86133.970574,	 347.255229,	 0.028167 
0.030000,	 0.000182,	 1.000003,	 9.657917,	 0.000698,	 300.015071,	 86133.838753,	 347.256325,	 0.027812 
0.050000,	 0.000182,	 0.999993,	 9.515997,	 0.001020,	 300.018076,	 86133.811519,	 347.258065,	 0.027403 
0.070000,	 0.000182,	 0.999979,	 9.348510,	 0.001586,	 300.022378,	 86133.822355,	 347.260554,	 0.026921 
0.090000,	 0.000182,	 0.999959,	 9.146562,	 0.001138,	 300.028365,	 86133.785781,	 347.264019,	 0.026339 
0.110000,	 0.000182,	 0.999931,	 8.898887,	 0.001852,	 300.036802,	 86133.848995,	 347.268902,	 0.025625 
0.130000,	 0.000182,	 0.999894,	 8.588556,	 0.002733,	 300.048188,	 86133.913912,	 347.275490,	 0.024731 
0.150000,	 0.000182,	 0.999847,	 8.194879,	 0.004100,	 300.062750,	 86134.020409,	 347.283917,	 0.023597 
0.170000,	 0.000182,	 0.999789,	 7.696792,	 0.006558,	 300.080742,	 86134.198487,	 347.294329,	 0.022162 
0.190000,	 0.000182,	 0.999707,	 7.080646,	 0.011990,	 300.106463,	 86134.519218,	 347.309212,	 0.020387 
0.210000,	 0.000182,	 0.999493,	 6.358604,	 0.028529,	 300.173667,	 86135.409007,	 347.348098,	 0.018306 
0.230000,	 0.000182,	 0.999596,	 5.592514,	 0.014799,	 300.139146,	 86134.347611,	 347.328124,	 0.016102 
0.250000,	 0.000182,	 0.999809,	 4.882866,	 0.007497,	 300.074979,	 86134.242621,	 347.290994,	 0.014060 
0.270000,	 0.000182,	 0.999989,	 4.283216,	 0.004499,	 300.020742,	 86134.250839,	 347.259607,	 0.012334 
0.290000,	 0.000182,	 1.000095,	 3.800260,	 0.002951,	 299.988870,	 86134.218519,	 347.241162,	 0.010944 
0.310000,	 0.000182,	 1.000134,	 3.419189,	 0.002048,	 299.977182,	 86134.167533,	 347.234397,	 0.009847 
0.330000,	 0.000182,	 1.000130,	 3.119970,	 0.001483,	 299.978113,	 86134.111912,	 347.234936,	 0.008985 
0.350000,	 0.000182,	 1.000108,	 2.884247,	 0.001108,	 299.984611,	 86134.058307,	 347.238697,	 0.008306 
0.370000,	 0.000182,	 1.000082,	 2.697298,	 0.000848,	 299.992236,	 86134.009106,	 347.243110,	 0.007768 
0.390000,	 0.000182,	 1.000059,	 2.547951,	 0.000660,	 299.998944,	 86133.964739,	 347.246992,	 0.007338 
0.410000,	 0.000182,	 1.000041,	 2.427922,	 0.000520,	 300.004158,	 86133.924879,	 347.250009,	 0.006992 
0.430000,	 0.000182,	 1.000028,	 2.331110,	 0.000412,	 300.007970,	 86133.889420,	 347.252215,	 0.006713 
0.450000,	 0.000182,	 1.000018,	 2.253022,	 0.000326,	 300.010678,	 86133.857481,	 347.253783,	 0.006488 
0.470000,	 0.000182,	 1.000012,	 2.190335,	 0.000256,	 300.012580,	 86133.828700,	 347.254884,	 0.006308 
0.490000,	 0.000182,	 1.000007,	 2.140590,	 0.000198,	 300.013913,	 86133.802468,	 347.255655,	 0.006164 
0.510000,	 0.000182,	 1.000004,	 2.101978,	 0.000147,	 300.014844,	 86133.778663,	 347.256194,	 0.006053 
0.530000,	 0.000182,	 1.000001,	 2.073188,	 0.000102,	 300.015490,	 86133.756620,	 347.256568,	 0.005970 
0.550000,	 0.000182,	 0.999999,	 2.053298,	 0.000061,	 300.015928,	 86133.736470,	 347.256821,	 0.005913 
0.570000,	 0.000182,	 0.999998,	 2.041708,	 0.000022,	 300.016208,	 86133.717495,	 347.256983,	 0.005880 
0.590000,	 0.000182,	 0.999998,	 2.038093,	 -0.000016,	 300.016362,	 86133.699832,	 347.257072,	 0.005869 
0.610000,	 0.000182,	 0.999997,	 2.042370,	 -0.000054,	 300.016403,	 86133.683061,	 347.257096,	 0.005881 
0.630000,	 0.000182,	 0.999997,	 2.054667,	 -0.000094,	 300.016344,	 86133.667199,	 347.257062,	 0.005917 
0.650000,	 0.000182,	 0.999998,	 2.075360,	 -0.000137,	 300.016184,	 86133.652073,	 347.256970,	 0.005976 
0.670000,	 0.000182,	 0.999998,	 2.105080,	 -0.000183,	 300.015915,	 86133.637357,	 347.256814,	 0.006062 
0.690000,	 0.000182,	 0.999999,	 2.144752,	 -0.000236,	 300.015518,	 86133.622689,	 347.256584,	 0.006176 
0.710000,	 0.000182,	 1.000001,	 2.195650,	 -0.000297,	 300.014962,	 86133.608398,	 347.256262,	 0.006323 
0.730000,	 0.000182,	 1.000004,	 2.259476,	 -0.000369,	 300.014202,	 86133.593719,	 347.255822,	 0.006507 
0.750000,	 0.000182,	 1.000007,	 2.338471,	 -0.000455,	 300.013173,	 86133.578511,	 347.255227,	 0.006734 
0.770000,	 0.000182,	 1.000011,	 2.435579,	 -0.000561,	 300.011777,	 86133.562229,	 347.254419,	 0.007014 
0.790000,	 0.000182,	 1.000017,	 2.554673,	 -0.000694,	 300.009874,	 86133.544208,	 347.253317,	 0.007357 
0.810000,	 0.000182,	 1.000026,	 2.700887,	 -0.000863,	 300.007259,	 86133.523445,	 347.251804,	 0.007778 
0.830000,	 0.000182,	 1.000038,	 2.881068,	 -0.001083,	 300.003638,	 86133.498262,	 347.249708,	 0.008297 
0.850000,	 0.000182,	 1.000054,	 3.104443,	 -0.001378,	 299.998591,	 86133.466219,	 347.246788,	 0.008940 
0.870000,	 0.000182,	 1.000077,	 3.383523,	 -0.001781,	 299.991546,	 86133.423265,	 347.242710,	 0.009744 
0.890000,	 0.000182,	 1.000109,	 3.735321,	 -0.002353,	 299.981778,	 86133.362924,	 347.237057,	 0.010757 
0.910000,	 0.000182,	 1.000152,	 4.182809,	 -0.003189,	 299.968528,	 86133.274502,	 347.229388,	 0.012046 
0.930000,	 0.000182,	 1.000208,	 4.756184,	 -0.004466,	 299.951402,	 86133.140947,	 347.219476,	 0.013698 
0.950000,	 0.000182,	 1.000272,	 5.492614,	 -0.006533,	 299.931406,	 86132.934337,	 347.207902,	 0.015819 
0.970000,	 0.000182,	 1.000330,	 6.431165,	 -0.010211,	 299.912993,	 86132.607049,	 347.197245,	 0.018523 
0.990000,	 0.000182,	 1.000337,	 7.596903,	 -0.017819,	 299.908840,	 86132.056930,	 347.194841,	 0.021881 
0.010000,	 0.000244,	 1.000007,	 9.746298,	 0.001256,	 300.014441,	 86134.000060,	 347.255961,	 0.028067 
0.030000,	 0.000244,	 0.999999,	 9.605063,	 0.001136,	 300.016474,	 86133.874802,	 347.257137,	 0.027660 
0.050000,	 0.000244,	 0.999989,	 9.444446,	 0.001526,	 300.019454,	 86133.855705,	 347.258862,	 0.027197 
0.070000,	 0.000244,	 0.999976,	 9.258794,	 0.002181,	 300.023531,	 86133.875933,	 347.261221,	 0.026662 
0.090000,	 0.000244,	 0.999958,	 9.040810,	 0.001849,	 300.028870,	 86133.850303,	 347.264311,	 0.026034 
0.110000,	 0.000244,	 0.999936,	 8.782093,	 0.002710,	 300.035663,	 86133.925678,	 347.268242,	 0.025289 
0.130000,	 0.000244,	 0.999909,	 8.472812,	 0.003778,	 300.043948,	 86134.000294,	 347.273037,	 0.024398 
0.150000,	 0.000244,	 0.999878,	 8.102927,	 0.005373,	 300.053566,	 86134.108684,	 347.278603,	 0.023333 
0.170000,	 0.000244,	 0.999844,	 7.665295,	 0.008086,	 300.064442,	 86134.272957,	 347.284897,	 0.022072 
0.190000,	 0.000244,	 0.999798,	 7.160499,	 0.013769,	 300.079373,	 86134.554667,	 347.293536,	 0.020618 
0.210000,	 0.000244,	 0.999656,	 6.604964,	 0.030481,	 300.124710,	 86135.376948,	 347.319771,	 0.019017 
0.230000,	 0.000244,	 0.999682,	 6.034723,	 0.016797,	 300.112887,	 86134.244314,	 347.312930,	 0.017376 
0.250000,	 0.000244,	 0.999805,	 5.487264,	 0.009336,	 300.075541,	 86134.114534,	 347.291320,	 0.015800 
0.270000,	 0.000244,	 0.999935,	 4.993320,	 0.006073,	 300.036571,	 86134.134160,	 347.268767,	 0.014379 
0.290000,	 0.000244,	 1.000034,	 4.565678,	 0.004243,	 300.006868,	 86134.126719,	 347.251578,	 0.013148 
0.310000,	 0.000244,	 1.000093,	 4.204712,	 0.003091,	 299.989202,	 86134.100427,	 347.241353,	 0.012109 
0.330000,	 0.000244,	 1.000117,	 3.904343,	 0.002318,	 299.981796,	 86134.064330,	 347.237067,	 0.011244 
0.350000,	 0.000244,	 1.000118,	 3.656141,	 0.001778,	 299.981289,	 86134.024605,	 347.236774,	 0.010529 
0.370000,	 0.000244,	 1.000107,	 3.451604,	 0.001387,	 299.984518,	 86133.984693,	 347.238643,	 0.009940 
0.390000,	 0.000244,	 1.000091,	 3.283176,	 0.001096,	 299.989214,	 86133.946305,	 347.241360,	 0.009455 
0.410000,	 0.000244,	 1.000074,	 3.144543,	 0.000873,	 299.994032,	 86133.910099,	 347.244149,	 0.009056 
0.430000,	 0.000244,	 1.000060,	 3.030614,	 0.000698,	 299.998325,	 86133.876677,	 347.246633,	 0.008728 
0.450000,	 0.000244,	 1.000048,	 2.937361,	 0.000557,	 300.001870,	 86133.845727,	 347.248685,	 0.008459 
0.470000,	 0.000244,	 1.000038,	 2.861641,	 0.000441,	 300.004668,	 86133.817199,	 347.250305,	 0.008241 
0.490000,	 0.000244,	 1.000030,	 2.801026,	 0.000342,	 300.006813,	 86133.790751,	 347.251546,	 0.008066 
0.510000,	 0.000244,	 1.000025,	 2.753670,	 0.000257,	 300.008421,	 86133.766256,	 347.252477,	 0.007930 
0.530000,	 0.000244,	 1.000021,	 2.718204,	 0.000180,	 300.009604,	 86133.743325,	 347.253161,	 0.007828 
0.550000,	 0.000244,	 1.000018,	 2.693654,	 0.000109,	 300.010449,	 86133.721917,	 347.253650,	 0.007757 
0.570000,	 0.000244,	 1.000015,	 2.679382,	 0.000043,	 300.011024,	 86133.701466,	 347.253983,	 0.007716 
0.590000,	 0.000244,	 1.000014,	 2.675050,	 -0.000023,	 300.011378,	 86133.682066,	 347.254188,	 0.007703 