TITLE = "Final State"
VARIABLES = "X", "Y", "rho", "u", "v", "T", "p", "c", "M"
ZONE I=100, J=100, DATAPACKING=POINT
0.005000,	 0.000015,	 1.000000,	 1000.000000,	 -0.000000,	 300.000000,	 86129.212707,	 347.247603,	 2.879789 
0.015000,	 0.000015,	 1.000000,	 1000.000000,	 -0.000000,	 300.000000,	 86129.212707,	 347.247603,	 2.879789 
0.025000,	 0.000015,	 1.000000,	 1000.000000,	 -0.000000,	 300.000000,	 86129.212707,	 347.247603,	 2.879789 
0.035000,	 0.000015,	 1.000000,	 1000.000000,	 -0.000000,	 300.000000,	 86129.212707,	 347.247603,	 2.879789 
0.045000,	 0.000015,	 1.000000,	 1000.000000,	 -0.000000,	 300.000000,	 86129.212707,	 347.247603,	 2.879789 
0.055000,	 0.000015,	 1.000000,	 1000.000000,	 -0.000000,	 300.000000,	 86129.212707,	 347.247603,	 2.879789 
0.065000,	 0.000015,	 1.000000,	 1000.000000,	 -0.000000,	 300.000000,	 86129.212707,	 347.247603,	 2.879789 
0.075000,	 0.000015,	 1.000000,	 1000.000000,	 -0.000000,	 300.000000,	 86129.212707,	 347.247603,	 2.879789 
0.085000,	 0.000015,	 1.000000,	 1000.000000,	 -0.000000,	 300.000000,	 86129.212707,	 347.247603,	 2.879789 
0.095000,	 0.000015,	 1.000000,	 1000.000000,	 -0.000000,	 300.000000,	 86129.212707,	 347.247603,	 2.879789 
0.105000,	 0.000015,	 1.000000,	 1000.000000,	 -0.000000,	 300.000000,	 86129.212707,	 347.247603,	 2.879789 
0.115000,	 0.000015,	 1.000000,	 1000.000000,	 -0.000000,	 300.000000,	 86129.212707,	 347.247603,	 2.879789 
0.125000,	 0.000015,	 1.000000,	 1000.000000,	 -0.000000,	 300.000000,	 86129.212707,	 347.247603,	 2.879789 
0.135000,	 0.000015,	 1.000000,	 1000.000000,	 -0.000000,	 300.000000,	 86129.212707,	 347.247603,	 2.879789 
0.145000,	 0.000015,	 1.000000,	 1000.000000,	 -0.000000,	 300.000000,	 86129.212707,	 347.247603,	 2.879789 
0.155000,	 0.000015,	 1.000000,	 1000.000000,	 -0.000000,	 300.000000,	 86129.212707,	 347.247603,	 2.879789 
0.165000,	 0.000015,	 1.000000,	 1000.000000,	 -0.000000,	 300.000000,	 86129.212707,	 347.247603,	 2.879789 
0.175000,	 0.000015,	 1.000000,	 1000.000000,	 -0.000000,	 300.000000,	 86129.212707,	 347.247603,	 2.879789 
0.185000,	 0.000015,	 1.000000,	 1000.000000,	 -0.000000,	 300.000000,	 86129.212707,	 347.247603,	 2.879789 
0.195000,	 0.000015,	 1.000000,	 1000.000000,	 0.000000,	 300.000000,	 86129.212707,	 347.247603,	 2.879789 
0.205000,	 0.000015,	 1.000000,	 999.999142,	 0.000006,	 300.000002,	 86129.215076,	 347.247604,	 2.879787 
0.215000,	 0.000015,	 0.675567,	 625.715075,	 -1.891952,	 460.166154,	 89250.804830,	 430.066847,	 1.454932 
0.225000,	 0.000015,	 0.582616,	 346.690899,	 -1.014730,	 527.678196,	 88263.449182,	 460.535596,	 0.752803 
0.235000,	 0.000015,	 0.565032,	 214.892140,	 -0.443396,	 539.159603,	 87461.968627,	 465.518882,	 0.461620 
0.245000,	 0.000015,	 0.562728,	 157.071450,	 -0.166966,	 539.313450,	 87130.217899,	 465.585295,	 0.337364 
0.255000,	 0.000015,	 0.563054,	 129.259571,	 -0.065487,	 537.894842,	 86951.361178,	 464.972555,	 0.277994 
0.265000,	 0.000015,	 0.563979,	 112.951691,	 -0.026923,	 536.360923,	 86845.924505,	 464.309098,	 0.243268 
0.275000,	 0.000015,	 0.564973,	 101.773340,	 -0.010541,	 534.976506,	 86774.380811,	 463.709490,	 0.219477 
0.285000,	 0.000015,	 0.565848,	 93.392234,	 -0.002982,	 533.818087,	 86720.541982,	 463.207168,	 0.201621 
0.295000,	 0.000015,	 0.566548,	 86.720972,	 0.000994,	 532.904454,	 86679.291520,	 462.810607,	 0.187379 
0.305000,	 0.000015,	 0.567081,	 81.244425,	 0.003112,	 532.194975,	 86645.252697,	 462.502425,	 0.175663 
0.315000,	 0.000015,	 0.567548,	 76.753247,	 0.004056,	 531.555486,	 86612.467358,	 462.224468,	 0.166052 
0.325000,	 0.000015,	 0.568174,	 73.018878,	 0.004276,	 530.799408,	 86584.614187,	 461.895620,	 0.158085 
0.335000,	 0.000015,	 0.569120,	 69.877690,	 0.004072,	 529.769098,	 86560.513855,	 461.447120,	 0.151432 
0.345000,	 0.000015,	 0.570439,	 67.210725,	 0.003618,	 528.413753,	 86539.165226,	 460.856466,	 0.145839 
0.355000,	 0.000015,	 0.572063,	 64.930278,	 0.002999,	 526.795814,	 86519.840469,	 460.150382,	 0.141107 
0.365000,	 0.000015,	 0.573862,	 62.970658,	 0.002258,	 525.036238,	 86501.998567,	 459.381254,	 0.137077 
0.375000,	 0.000015,	 0.575708,	 61.282553,	 0.001424,	 523.251570,	 86485.221308,	 458.599840,	 0.133630 
0.385000,	 0.000015,	 0.577512,	 59.828428,	 0.000542,	 521.520470,	 86469.173340,	 457.840607,	 0.130675 
0.395000,	 0.000015,	 0.579228,	 58.575554,	 -0.000287,	 519.881192,	 86453.550969,	 457.120483,	 0.128140 
0.405000,	 0.000015,	 0.580843,	 57.508600,	 -0.001168,	 518.342610,	 86438.060478,	 456.443561,	 0.125993 
0.415000,	 0.000015,	 0.582352,	 56.624391,	 -0.002371,	 516.907944,	 86422.792275,	 455.811452,	 0.124228 
0.425000,	 0.000015,	 0.583750,	 55.906591,	 -0.003762,	 515.581157,	 86407.876729,	 455.226093,	 0.122811 
0.435000,	 0.000015,	 0.585035,	 55.340866,	 -0.005196,	 514.362149,	 86393.368315,	 454.687621,	 0.121712 
0.445000,	 0.000015,	 0.586212,	 54.906988,	 -0.006575,	 513.248835,	 86379.747092,	 454.195279,	 0.120889 
0.455000,	 0.000015,	 0.587285,	 54.583705,	 -0.007814,	 512.235975,	 86367.094155,	 453.746896,	 0.120295 
0.465000,	 0.000015,	 0.588263,	 54.349447,	 -0.008881,	 511.315468,	 86355.366439,	 453.339013,	 0.119887 
0.475000,	 0.000015,	 0.589154,	 54.185043,	 -0.009778,	 510.477576,	 86344.545047,	 452.967418,	 0.119622 
0.485000,	 0.000015,	 0.589970,	 54.074727,	 -0.010526,	 509.712520,	 86334.497952,	 452.627858,	 0.119468 
0.495000,	 0.000015,	 0.590719,	 54.006038,	 -0.011151,	 509.011414,	 86325.146919,	 452.316457,	 0.119399 
0.505000,	 0.000015,	 0.591408,	 53.969325,	 -0.011674,	 508.366691,	 86316.375134,	 452.029911,	 0.119393 
0.515000,	 0.000015,	 0.592043,	 53.957042,	 -0.012112,	 507.772062,	 86308.104939,	 451.765467,	 0.119436 
0.525000,	 0.000015,	 0.592631,	 53.963363,	 -0.012480,	 507.222361,	 86300.303391,	 451.520866,	 0.119515 
0.535000,	 0.000015,	 0.593176,	 53.983704,	 -0.012788,	 506.713349,	 86292.954253,	 451.294252,	 0.119620 
0.545000,	 0.000015,	 0.593682,	 54.014498,	 -0.013043,	 506.241515,	 86286.100036,	 451.084088,	 0.119744 
0.555000,	 0.000015,	 0.594152,	 54.052978,	 -0.013253,	 505.803922,	 86279.811839,	 450.889089,	 0.119881 
0.565000,	 0.000015,	 0.594591,	 54.097002,	 -0.013423,	 505.398086,	 86274.186304,	 450.708165,	 0.120027 
0.575000,	 0.000015,	 0.595000,	 54.144941,	 -0.013559,	 505.021868,	 86269.337976,	 450.540380,	 0.120178 
0.585000,	 0.000015,	 0.595384,	 54.195562,	 -0.013665,	 504.673408,	 86265.377383,	 450.384919,	 0.120332 
0.595000,	 0.000015,	 0.595744,	 54.247930,	 -0.013747,	 504.351060,	 86262.399527,	 450.241060,	 0.120486 
0.605000,	 0.000015,	 0.596082,	 54.301332,	 -0.013809,	 504.053350,	 86260.470369,	 450.108156,	 0.120641 
0.615000,	 0.000015,	 0.596401,	 54.355208,	 -0.013855,	 503.778937,	 86259.615374,	 449.985617,	 0.120793 
0.625000,	 0.000015,	 0.596701,	 54.409094,	 -0.013890,	 503.526584,	 86259.815416,	 449.872899,	 0.120943 
0.635000,	 0.000015,	 0.596984,	 54.462586,	 -0.013918,	 503.295130,	 86261.006363,	 449.769491,	 0.121090 
0.645000,	 0.000015,	 0.597249,	 54.515315,	 -0.013941,	 503.083470,	 86263.083632,	 449.674907,	 0.121233 
0.655000,	 0.000015,	 0.597498,	 54.566937,	 -0.013961,	 502.890543,	 86265.911123,	 449.588676,	 0.121371 
0.665000,	 0.000015,	 0.597730,	 54.617131,	 -0.013982,	 502.715313,	 86269.332223,	 449.510340,	 0.121504 
0.675000,	 0.000015,	 0.597945,	 54.665602,	 -0.014003,	 502.556762,	 86273.181876,	 449.439449,	 0.121631 
0.685000,	 0.000015,	 0.598144,	 54.712097,	 -0.014025,	 502.413881,	 86277.298039,	 449.375555,	 0.121751 
0.695000,	 0.000015,	 0.598326,	 54.756406,	 -0.014049,	 502.285671,	 86281.531334,	 449.318214,	 0.121866 
0.705000,	 0.000015,	 0.598492,	 54.798379,	 -0.014074,	 502.171141,	 86285.752177,	 449.266985,	 0.121973 
0.715000,	 0.000015,	 0.598642,	 54.837923,	 -0.014100,	 502.069311,	 86289.855056,	 449.221431,	 0.122073 
0.725000,	 0.000015,	 0.598776,	 54.875003,	 -0.014127,	 501.979214,	 86293.760119,	 449.181123,	 0.122167 
0.735000,	 0.000015,	 0.598896,	 54.909638,	 -0.014155,	 501.899909,	 86297.412447,	 449.145639,	 0.122254 
0.745000,	 0.000015,	 0.599002,	 54.941896,	 -0.014182,	 501.830479,	 86300.779636,	 449.114572,	 0.122334 
0.755000,	 0.000015,	 0.599096,	 54.971880,	 -0.014208,	 501.770043,	 86303.848334,	 449.087528,	 0.122408 
0.765000,	 0.000015,	 0.599177,	 54.999719,	 -0.014233,	 501.717757,	 86306.620318,	 449.064129,	 0.122476 
0.775000,	 0.000015,	 0.599248,	 55.025558,	 -0.014258,	 501.672821,	 86309.108613,	 449.044018,	 0.122539 
0.785000,	 0.000015,	 0.599310,	 55.049551,	 -0.014281,	 501.634479,	 86311.333954,	 449.026858,	 0.122597 
0.795000,	 0.000015,	 0.599362,	 55.071849,	 -0.014302,	 501.602024,	 86313.321790,	 449.012332,	 0.122651 
0.805000,	 0.000015,	 0.599407,	 55.092598,	 -0.014321,	 501.574796,	 86315.099863,	 449.000146,	 0.122701 
0.815000,	 0.000015,	 0.599445,	 55.111934,	 -0.014339,	 501.552186,	 86316.696306,	 448.990025,	 0.122746 
0.825000,	 0.000015,	 0.599477,	 55.129980,	 -0.014355,	 501.533628,	 86318.138120,	 448.981719,	 0.122789 
0.835000,	 0.000015,	 0.599504,	 55.146845,	 -0.014369,	 501.518609,	 86319.449904,	 448.974996,	 0.122828 
0.845000,	 0.000015,	 0.599527,	 55.162626,	 -0.014380,	 501.506657,	 86320.652708,	 448.969646,	 0.122865 
0.855000,	 0.000015,	 0.599546,	 55.177402,	 -0.014391,	 501.497349,	 86321.762922,	 448.965480,	 0.122899 
0.865000,	 0.000015,	 0.599561,	 55.191240,	 -0.014400,	 501.490305,	 86322.791188,	 448.962326,	 0.122931 
0.875000,	 0.000015,	 0.599574,	 55.204189,	 -0.014407,	 501.485185,	 86323.741388,	 448.960035,	 0.122960 
0.885000,	 0.000015,	 0.599584,	 55.216283,	 -0.014414,	 501.481693,	 86324.609824,	 448.958472,	 0.122988 
0.895000,	 0.000015,	 0.599592,	 55.227538,	 -0.014421,	 501.479572,	 86325.384820,	 448.957522,	 0.123013 
0.905000,	 0.000015,	 0.599598,	 55.237954,	 -0.014428,	 501.478599,	 86326.046915,	 448.957087,	 0.123036 
0.915000,	 0.000015,	 0.599602,	 55.247513,	 -0.014435,	 501.478585,	 86326.569837,	 448.957080,	 0.123057 
0.925000,	 0.000015,	 0.599603,	 55.256184,	 -0.014443,	 501.479372,	 86326.922369,	 448.957432,	 0.123077 
0.935000,	 0.000015,	 0.599603,	 55.263922,	 -0.014450,	 501.480824,	 86327.071155,	 448.958082,	 0.123094 
0.945000,	 0.000015,	 0.599600,	 55.270676,	 -0.014458,	 501.482829,	 86326.984304,	 448.958980,	 0.123109 
0.955000,	 0.000015,	 0.599594,	 55.276386,	 -0.014465,	 501.485297,	 86326.635646,	 448.960085,	 0.123121 
0.965000,	 0.000015,	 0.599586,	 55.280983,	 -0.014469,	 501.488161,	 86326.008959,	 448.961367,	 0.123131 
0.975000,	 0.000015,	 0.599576,	 55.284358,	 -0.014471,	 501.491399,	 86325.102255,	 448.962816,	 0.123138 
0.985000,	 0.000015,	 0.599564,	 55.286270,	 -0.014465,	 501.495072,	 86323.931911,	 448.964460,	 0.123142 
0.995000,	 0.000015,	 0.599549,	 55.286090,	 -0.014447,	 501.499265,	 86322.538041,	 448.966337,	 0.123141 
0.005000,	 0.000046,	 1.000000,	 1000.000000,	 0.000000,	 300.000000,	 86129.212707,	 347.247603,	 2.879789 
0.015000,	 0.000046,	 1.000000,	 1000.000000,	 0.000000,	 300.000000,	 86129.212707,	 347.247603,	 2.879789 
0.025000,	 0.000046,	 1.000000,	 1000.000000,	 0.000000,	 300.000000,	 86129.212707,	 347.247603,	 2.879789 
0.035000,	 0.000046,	 1.000000,	 1000.000000,	 0.000000,	 300.000000,	 86129.212707,	 347.247603,	 2.879789 
0.045000,	 0.000046,	 1.000000,	 1000.000000,	 0.000000,	 300.000000,	 86129.212707,	 347.247603,	 2.879789 
0.055000,	 0.000046,	 1.000000,	 1000.000000,	 0.000000,	 300.000000,	 86129.212707,	 347.247603,	 2.879789 
0.065000,	 0.000046,	 1.000000,	 1000.000000,	 0.000000,	 300.000000,	 86129.212707,	 347.247603,	 2.879789 
0.075000,	 0.000046,	 1.000000,	 1000.000000,	 0.000000,	 300.000000,	 86129.212707,	 347.247603,	 2.879789 
0.085000,	 0.000046,	 1.000000,	 1000.000000,	 0.000000,	 300.000000,	 86129.212707,	 347.247603,	 2.879789 
0.095000,	 0.000046,	 1.000000,	 1000.000000,	 0.000000,	 300.000000,	 86129.212707,	 347.247603,	 2.879789 
0.105000,	 0.000046,	 1.000000,	 1000.000000,	 0.000000,	 300.000000,	 86129.212707,	 347.247603,	 2.879789 
0.115000,	 0.000046,	 1.000000,	 1000.000000,	 0.000000,	 300.000000,	 86129.212707,	 347.247603,	 2.879789 
0.125000,	 0.000046,	 1.000000,	 1000.000000,	 0.000000,	 300.000000,	 86129.212707,	 347.247603,	 2.879789 
0.135000,	 0.000046,	 1.000000,	 1000.000000,	 0.000000,	 300.000000,	 86129.212707,	 347.247603,	 2.879789 
0.145000,	 0.000046,	 1.000000,	 1000.000000,	 0.000000,	 300.000000,	 86129.212707,	 347.247603,	 2.879789 
0.155000,	 0.000046,	 1.000000,	 1000.000000,	 0.000000,	 300.000000,	 86129.212707,	 347.247603,	 2.879789 
0.165000,	 0.000046,	 1.000000,	 1000.000000,	 0.000000,	 300.000000,	 86129.212707,	 347.247603,	 2.879789 
0.175000,	 0.000046,	 1.000000,	 1000.000000,	 0.000000,	 300.000000,	 86129.212707,	 347.247603,	 2.879789 
0.185000,	 0.000046,	 1.000000,	 1000.000000,	 0.000000,	 300.000000,	 86129.212707,	 347.247603,	 2.879789 
0.195000,	 0.000046,	 1.000000,	 1000.000000,	 0.000000,	 300.000000,	 86129.212707,	 347.247603,	 2.879789 
0.205000,	 0.000046,	 1.000000,	 999.999464,	 0.000006,	 300.000003,	 86129.215663,	 347.247605,	 2.879788 
0.215000,	 0.000046,	 0.775363,	 809.394013,	 2.580733,	 394.374151,	 87789.493941,	 398.137284,	 2.032962 
0.225000,	 0.000046,	 0.657375,	 619.616446,	 1.143929,	 464.406787,	 87647.846534,	 432.043930,	 1.434154 
0.235000,	 0.000046,	 0.617687,	 496.762803,	 0.291793,	 491.891295,	 87230.121204,	 444.644780,	 1.117213 
0.245000,	 0.000046,	 0.603235,	 418.443909,	 0.087477,	 502.552649,	 87035.727430,	 449.437610,	 0.931039 
0.255000,	 0.000046,	 0.598184,	 366.624237,	 0.030047,	 506.022578,	 86902.787514,	 450.986536,	 0.812938 
0.265000,	 0.000046,	 0.596416,	 329.368977,	 0.016689,	 507.021046,	 86816.957023,	 451.431253,	 0.729610 
0.275000,	 0.000046,	 0.595802,	 300.876150,	 0.014641,	 507.185709,	 86755.731373,	 451.504552,	 0.666386 
0.285000,	 0.000046,	 0.595593,	 278.212239,	 0.014953,	 507.084553,	 86708.034659,	 451.459524,	 0.616251 
0.295000,	 0.000046,	 0.595512,	 259.585581,	 0.015527,	 506.935674,	 86670.739257,	 451.393246,	 0.575076 
0.305000,	 0.000046,	 0.595484,	 244.002324,	 0.015195,	 506.774912,	 86639.261704,	 451.321666,	 0.540640 
0.315000,	 0.000046,	 0.595503,	 231.049943,	 0.014180,	 506.577361,	 86608.175572,	 451.233690,	 0.512041 
0.325000,	 0.000046,	 0.595596,	 220.130151,	 0.012935,	 506.341652,	 86581.444300,	 451.128699,	 0.487954 
0.335000,	 0.000046,	 0.595779,	 210.821759,	 0.011602,	 506.049252,	 86558.069773,	 450.998423,	 0.467456 
0.345000,	 0.000046,	 0.596075,	 202.822590,	 0.010220,	 505.675998,	 86537.175406,	 450.832067,	 0.449885 
0.355000,	 0.000046,	 0.596505,	 195.910228,	 0.008786,	 505.200369,	 86518.111367,	 450.619995,	 0.434757 
0.365000,	 0.000046,	 0.597080,	 189.917194,	 0.007292,	 504.610880,	 86500.384875,	 450.357017,	 0.421704 
0.375000,	 0.000046,	 0.597795,	 184.715924,	 0.005737,	 503.908907,	 86483.609898,	 450.043659,	 0.410440 
0.385000,	 0.000046,	 0.598640,	 180.208535,	 0.004146,	 503.104388,	 86467.476367,	 449.684255,	 0.400745 
0.395000,	 0.000046,	 0.599600,	 176.319334,	 0.002561,	 502.207209,	 86451.714300,	 449.283118,	 0.392446 
0.405000,	 0.000046,	 0.600671,	 172.990961,	 0.000947,	 501.220838,	 86436.044815,	 448.841689,	 0.385416 
0.415000,	 0.000046,	 0.601867,	 170.168625,	 -0.000743,	 500.135142,	 86420.541117,	 448.355307,	 0.379540 
0.425000,	 0.000046,	 0.603209,	 167.819925,	 -0.002537,	 498.933988,	 86405.307622,	 447.816585,	 0.374751 
0.435000,	 0.000046,	 0.604679,	 165.921962,	 -0.004477,	 497.635824,	 86390.382431,	 447.233624,	 0.370996 
0.445000,	 0.000046,	 0.606212,	 164.427667,	 -0.006423,	 496.296015,	 86376.294460,	 446.631164,	 0.368151 
0.455000,	 0.000046,	 0.607743,	 163.286184,	 -0.008224,	 494.970615,	 86363.182295,	 446.034383,	 0.366084 
0.465000,	 0.000046,	 0.609220,	 162.436937,	 -0.009803,	 493.701021,	 86351.034011,	 445.461979,	 0.364648 
0.475000,	 0.000046,	 0.610616,	 161.822113,	 -0.011138,	 492.508877,	 86339.845650,	 444.923823,	 0.363707 
0.485000,	 0.000046,	 0.611919,	 161.391127,	 -0.012252,	 491.400834,	 86329.484152,	 444.423048,	 0.363148 
0.495000,	 0.000046,	 0.613131,	 161.102925,	 -0.013177,	 490.374802,	 86319.865751,	 443.958834,	 0.362878 
0.505000,	 0.000046,	 0.614258,	 160.925355,	 -0.013947,	 489.424439,	 86310.866534,	 443.528422,	 0.362830 
0.515000,	 0.000046,	 0.615307,	 160.833343,	 -0.014588,	 488.541953,	 86302.402609,	 443.128376,	 0.362950 
0.525000,	 0.000046,	 0.616288,	 160.807532,	 -0.015121,	 487.719379,	 86294.435721,	 442.755164,	 0.363197 
0.535000,	 0.000046,	 0.617209,	 160.832803,	 -0.015565,	 486.949230,	 86286.945402,	 442.405453,	 0.363542 
0.545000,	 0.000046,	 0.618079,	 160.897394,	 -0.015931,	 486.224724,	 86279.970710,	 442.076214,	 0.363958 
0.555000,	 0.000046,	 0.618905,	 160.992142,	 -0.016231,	 485.539867,	 86273.579883,	 441.764768,	 0.364430 
0.565000,	 0.000046,	 0.619694,	 161.109885,	 -0.016474,	 484.889488,	 86267.867153,	 441.468798,	 0.364941 
0.575000,	 0.000046,	 0.620452,	 161.245047,	 -0.016669,	 484.269227,	 86262.944952,	 441.186348,	 0.365481 
0.585000,	 0.000046,	 0.621185,	 161.393254,	 -0.016821,	 483.675529,	 86258.921938,	 440.915825,	 0.366041 
0.595000,	 0.000046,	 0.621896,	 161.551034,	 -0.016938,	 483.105616,	 86255.891432,	 440.655984,	 0.366615 
0.605000,	 0.000046,	 0.622588,	 161.715580,	 -0.017027,	 482.557446,	 86253.917886,	 440.405912,	 0.367197 
0.615000,	 0.000046,	 0.623263,	 161.884550,	 -0.017094,	 482.029646,	 86253.025418,	 440.164997,	 0.367782 
0.625000,	 0.000046,	 0.623922,	 162.055924,	 -0.017143,	 481.521434,	 86253.193717,	 439.932899,	 0.368365 
0.635000,	 0.000046,	 0.624565,	 162.227905,	 -0.017179,	 481.032514,	 86254.357620,	 439.709497,	 0.368943 
0.645000,	 0.000046,	 0.625190,	 162.398858,	 -0.017207,	 480.562976,	 86256.411672,	 439.494843,	 0.369513 
0.655000,	 0.000046,	 0.625796,	 162.567289,	 -0.017230,	 480.113180,	 86259.219043,	 439.289116,	 0.370069 
0.665000,	 0.000046,	 0.626381,	 162.731845,	 -0.017251,	 479.683649,	 86262.622522,	 439.092568,	 0.370609 
0.675000,	 0.000046,	 0.626943,	 162.891330,	 -0.017270,	 479.274972,	 86266.456565,	 438.905481,	 0.371131 
0.685000,	 0.000046,	 0.627480,	 163.044726,	 -0.017290,	 478.887717,	 86270.558738,	 438.728127,	 0.371630 
0.695000,	 0.000046,	 0.627990,	 163.191215,	 -0.017311,	 478.522361,	 86274.779342,	 438.560737,	 0.372106 
0.705000,	 0.000046,	 0.628471,	 163.330195,	 -0.017334,	 478.179244,	 86278.988534,	 438.403477,	 0.372557 
0.715000,	 0.000046,	 0.628922,	 163.461275,	 -0.017357,	 477.858532,	 86283.080591,	 438.256435,	 0.372981 
0.725000,	 0.000046,	 0.629344,	 163.584276,	 -0.017382,	 477.560200,	 86286.975483,	 438.119610,	 0.373378 
0.735000,	 0.000046,	 0.629734,	 163.699203,	 -0.017407,	 477.284035,	 86290.618147,	 437.992913,	 0.373749 
0.745000,	 0.000046,	 0.630095,	 163.806222,	 -0.017433,	 477.029635,	 86293.976068,	 437.876168,	 0.374093 
0.755000,	 0.000046,	 0.630425,	 163.905628,	 -0.017459,	 476.796429,	 86297.035808,	 437.769123,	 0.374411 
0.765000,	 0.000046,	 0.630727,	 163.997813,	 -0.017485,	 476.583698,	 86299.799090,	 437.671453,	 0.374705 
0.775000,	 0.000046,	 0.631001,	 164.083229,	 -0.017511,	 476.390597,	 86302.278910,	 437.582777,	 0.374976 
0.785000,	 0.000046,	 0.631248,	 164.162366,	 -0.017536,	 476.216178,	 86304.496001,	 437.502664,	 0.375226 
0.795000,	 0.000046,	 0.631470,	 164.235719,	 -0.017559,	 476.059414,	 86306.475836,	 437.430648,	 0.375455 
0.805000,	 0.000046,	 0.631669,	 164.303777,	 -0.017582,	 475.919224,	 86308.246197,	 437.366236,	 0.375666 
0.815000,	 0.000046,	 0.631847,	 164.367003,	 -0.017602,	 475.794492,	 86309.835267,	 437.308919,	 0.375860 
0.825000,	 0.000046,	 0.632004,	 164.425826,	 -0.017621,	 475.684086,	 86311.270108,	 437.258178,	 0.376038 
0.835000,	 0.000046,	 0.632143,	 164.480631,	 -0.017639,	 475.586874,	 86312.575380,	 437.213496,	 0.376202 
0.845000,	 0.000046,	 0.632264,	 164.531757,	 -0.017654,	 475.501741,	 86313.772189,	 437.174362,	 0.376353 
0.855000,	 0.000046,	 0.632371,	 164.579492,	 -0.017668,	 475.427602,	 86314.876972,	 437.140279,	 0.376491 
0.865000,	 0.000046,	 0.632464,	 164.624073,	 -0.017680,	 475.363412,	 86315.900412,	 437.110768,	 0.376619 
0.875000,	 0.000046,	 0.632544,	 164.665682,	 -0.017691,	 475.308178,	 86316.846417,	 437.085373,	 0.376736 
0.885000,	 0.000046,	 0.632614,	 164.704447,	 -0.017702,	 475.260966,	 86317.711308,	 437.063664,	 0.376843 
0.895000,	 0.000046,	 0.632673,	 164.740443,	 -0.017712,	 475.220906,	 86318.483423,	 437.045244,	 0.376941 
0.905000,	 0.000046,	 0.632722,	 164.773694,	 -0.017722,	 475.187196,	 86319.143315,	 437.029743,	 0.377031 
0.915000,	 0.000046,	 0.632764,	 164.804180,	 -0.017733,	 475.159105,	 86319.664721,	 437.016825,	 0.377112 
0.925000,	 0.000046,	 0.632797,	 164.831848,	 -0.017745,	 475.135969,	 86320.016446,	 437.006185,	 0.377184 
0.935000,	 0.000046,	 0.632823,	 164.856619,	 -0.017757,	 475.117191,	 86320.165161,	 436.997549,	 0.377248 
0.945000,	 0.000046,	 0.632842,	 164.878404,	 -0.017769,	 475.102233,	 86320.079014,	 436.990671,	 0.377304 
0.955000,	 0.000046,	 0.632855,	 164.897114,	 -0.017780,	 475.090618,	 86319.731887,	 436.985329,	 0.377352 
0.965000,	 0.000046,	 0.632862,	 164.912652,	 -0.017788,	 475.081924,	 86319.107661,	 436.981330,	 0.377391 
0.975000,	 0.000046,	 0.632864,	 164.924865,	 -0.017793,	 475.075806,	 86318.204555,	 436.978517,	 0.377421 
0.985000,	 0.000046,	 0.632860,	 164.933359,	 -0.017789,	 475.072052,	 86317.039458,	 436.976790,	 0.377442 
0.995000,	 0.000046,	 0.632852,	 164.937027,	 -0.017770,	 475.070733,	 86315.653218,	 436.976184,	 0.377451 
0.005000,	 0.000079,	 1.000000,	 1000.000000,	 0.000000,	 300.000000,	 86129.212707,	 347.247603,	 2.879789 
0.015000,	 0.000079,	 1.000000,	 1000.000000,	 0.000000,	 300.000000,	 86129.212707,	 347.247603,	 2.879789 
0.025000,	 0.000079,	 1.000000,	 1000.000000,	 0.000000,	 300.000000,	 86129.212707,	 347.247603,	 2.879789 
0.035000,	 0.000079,	 1.000000,	 1000.000000,	 0.000000,	 300.000000,	 86129.212707,	 347.247603,	 2.879789 
0.045000,	 0.000079,	 1.000000,	 1000.000000,	 0.000000,	 300.000000,	 86129.212707,	 347.247603,	 2.879789 
0.055000,	 0.000079,	 1.000000,	 1000.000000,	 0.000000,	 300.000000,	 86129.212707,	 347.247603,	 2.879789 
0.065000,	 0.000079,	 1.000000,	 1000.000000,	 0.000000,	 300.000000,	 86129.212707,	 347.247603,	 2.879789 
0.075000,	 0.000079,	 1.000000,	 1000.000000,	 0.000000,	 300.000000,	 86129.212707,	 347.247603,	 2.879789 
0.085000,	 0.000079,	 1.000000,	 1000.000000,	 0.000000,	 300.000000,	 86129.212707,	 347.247603,	 2.879789 
0.095000,	 0.000079,	 1.000000,	 1000.000000,	 0.000000,	 300.000000,	 86129.212707,	 347.247603,	 2.879789 
0.105000,	 0.000079,	 1.000000,	 1000.000000,	 0.000000,	 300.000000,	 86129.212707,	 347.247603,	 2.879789 
0.115000,	 0.000079,	 1.000000,	 1000.000000,	 0.000000,	 300.000000,	 86129.212707,	 347.247603,	 2.879789 
0.125000,	 0.000079,	 1.000000,	 1000.000000,	 0.000000,	 300.000000,	 86129.212707,	 347.247603,	 2.879789 
0.135000,	 0.000079,	 1.000000,	 1000.000000,	 0.000000,	 300.000000,	 86129.212707,	 347.247603,	 2.879789 
0.145000,	 0.000079,	 1.000000,	 1000.000000,	 0.000000,	 300.000000,	 86129.212707,	 347.247603,	 2.879789 
0.155000,	 0.000079,	 1.000000,	 1000.000000,	 0.000000,	 300.000000,	 86129.212707,	 347.247603,	 2.879789 
0.165000,	 0.000079,	 1.000000,	 1000.000000,	 0.000000,	 300.000000,	 86129.212707,	 347.247603,	 2.879789 
0.175000,	 0.000079,	 1.000000,	 1000.000000,	 0.000000,	 300.000000,	 86129.212707,	 347.247603,	 2.879789 
0.185000,	 0.000079,	 1.000000,	 1000.000000,	 0.000000,	 300.000000,	 86129.212707,	 347.247603,	 2.879789 
0.195000,	 0.000079,	 1.000000,	 1000.000000,	 0.000000,	 300.000000,	 86129.212707,	 347.247603,	 2.879789 
0.205000,	 0.000079,	 1.000000,	 999.999749,	 0.000007,	 300.000003,	 86129.215310,	 347.247605,	 2.879789 
0.215000,	 0.000079,	 0.888343,	 914.195842,	 3.057401,	 343.652818,	 87645.516964,	 371.653805,	 2.459819 
0.225000,	 0.000079,	 0.781560,	 805.778993,	 1.825126,	 389.706030,	 87443.738989,	 395.773938,	 2.035963 
0.235000,	 0.000079,	 0.726206,	 715.999066,	 0.740013,	 417.554215,	 87056.609080,	 409.670852,	 1.747743 
0.245000,	 0.000079,	 0.695361,	 642.234367,	 0.372814,	 435.315159,	 86904.768567,	 418.292930,	 1.535370 
0.255000,	 0.000079,	 0.677287,	 583.636490,	 0.209219,	 446.439380,	 86808.996896,	 423.603829,	 1.377789 
0.265000,	 0.000079,	 0.665766,	 536.403039,	 0.138516,	 453.849459,	 86748.589857,	 427.104887,	 1.255905 
0.275000,	 0.000079,	 0.657869,	 497.641826,	 0.103614,	 459.065473,	 86704.764861,	 429.552197,	 1.158513 
0.285000,	 0.000079,	 0.652170,	 465.337923,	 0.083105,	 462.887659,	 86669.305667,	 431.336719,	 1.078828 
0.295000,	 0.000079,	 0.647711,	 437.823997,	 0.071099,	 465.923412,	 86641.275920,	 432.748824,	 1.011728 
0.305000,	 0.000079,	 0.644030,	 414.101512,	 0.062544,	 468.454206,	 86616.859398,	 433.922531,	 0.954321 
0.315000,	 0.000079,	 0.641272,	 393.957360,	 0.052604,	 470.323938,	 86590.145368,	 434.787621,	 0.906091 
0.325000,	 0.000079,	 0.639187,	 376.629602,	 0.044728,	 471.730271,	 86566.661415,	 435.437173,	 0.864946 
0.335000,	 0.000079,	 0.637596,	 361.584354,	 0.038352,	 472.792777,	 86545.737701,	 435.927278,	 0.829460 
0.345000,	 0.000079,	 0.636392,	 348.438535,	 0.032994,	 473.583079,	 86526.700765,	 436.291465,	 0.798637 
0.355000,	 0.000079,	 0.635511,	 336.909665,	 0.028318,	 474.142641,	 86509.036998,	 436.549140,	 0.771757 
0.365000,	 0.000079,	 0.634919,	 326.784583,	 0.024091,	 474.493275,	 86492.348971,	 436.710526,	 0.748286 
0.375000,	 0.000079,	 0.634600,	 317.899515,	 0.020155,	 474.643987,	 86476.321535,	 436.779876,	 0.727825 
0.385000,	 0.000079,	 0.634549,	 310.127031,	 0.016421,	 474.596379,	 86460.699109,	 436.757971,	 0.710066 
0.395000,	 0.000079,	 0.634765,	 303.368342,	 0.012854,	 474.350000,	 86445.250397,	 436.644588,	 0.694772 
0.405000,	 0.000079,	 0.635242,	 297.549106,	 0.009337,	 473.908786,	 86429.738717,	 436.441470,	 0.681762 
0.415000,	 0.000079,	 0.635947,	 292.591212,	 0.005749,	 473.299121,	 86414.290259,	 436.160647,	 0.670834 
0.425000,	 0.000079,	 0.636809,	 288.407510,	 0.002267,	 472.574966,	 86399.042989,	 435.826853,	 0.661748 
0.435000,	 0.000079,	 0.637769,	 284.919484,	 -0.000913,	 471.781253,	 86384.046090,	 435.460702,	 0.654294 
0.445000,	 0.000079,	 0.638839,	 282.074592,	 -0.003922,	 470.913544,	 86369.767376,	 435.060065,	 0.648358 
0.455000,	 0.000079,	 0.640042,	 279.829402,	 -0.006879,	 469.955100,	 86356.314652,	 434.617103,	 0.643853 
0.465000,	 0.000079,	 0.641369,	 278.107708,	 -0.009581,	 468.914907,	 86343.760442,	 434.135848,	 0.640601 
0.475000,	 0.000079,	 0.642789,	 276.826526,	 -0.011916,	 467.816045,	 86332.169479,	 433.626870,	 0.638398 
0.485000,	 0.000079,	 0.644263,	 275.898989,	 -0.013878,	 466.687426,	 86321.434521,	 433.103486,	 0.637028 
0.495000,	 0.000079,	 0.645756,	 275.251121,	 -0.015501,	 465.555085,	 86311.483022,	 432.577739,	 0.636304 
0.505000,	 0.000079,	 0.647238,	 274.822191,	 -0.016842,	 464.439113,	 86302.189879,	 432.058967,	 0.636076 
0.515000,	 0.000079,	 0.648688,	 274.564274,	 -0.017948,	 463.353702,	 86293.467863,	 431.553803,	 0.636223 
0.525000,	 0.000079,	 0.650094,	 274.440012,	 -0.018862,	 462.307821,	 86285.274382,	 431.066476,	 0.636654 
0.535000,	 0.000079,	 0.651447,	 274.420199,	 -0.019615,	 461.306335,	 86277.584857,	 430.599319,	 0.637298 
0.545000,	 0.000079,	 0.652745,	 274.482119,	 -0.020234,	 460.350971,	 86270.434778,	 430.153203,	 0.638103 
0.555000,	 0.000079,	 0.653988,	 274.608075,	 -0.020740,	 459.441080,	 86263.889374,	 429.727890,	 0.639028 
0.565000,	 0.000079,	 0.655180,	 274.784227,	 -0.021150,	 458.574283,	 86258.040327,	 429.322329,	 0.640042 
0.575000,	 0.000079,	 0.656326,	 274.999752,	 -0.021479,	 457.746976,	 86252.997893,	 428.934887,	 0.641122 
0.585000,	 0.000079,	 0.657432,	 275.246106,	 -0.021739,	 456.954782,	 86248.868869,	 428.563561,	 0.642253 
0.595000,	 0.000079,	 0.658506,	 275.516452,	 -0.021941,	 456.192951,	 86245.744973,	 428.206164,	 0.643420 
0.605000,	 0.000079,	 0.659555,	 275.805198,	 -0.022095,	 455.456709,	 86243.689261,	 427.860487,	 0.644615 
0.615000,	 0.000079,	 0.660585,	 276.107624,	 -0.022210,	 454.741566,	 86242.724632,	 427.524449,	 0.645829 
0.625000,	 0.000079,	 0.661601,	 276.419617,	 -0.022294,	 454.043561,	 86242.829698,	 427.196209,	 0.647055 
0.635000,	 0.000079,	 0.662608,	 276.737485,	 -0.022353,	 453.359445,	 86243.938341,	 426.874255,	 0.648288 
0.645000,	 0.000079,	 0.663608,	 277.057840,	 -0.022395,	 452.686787,	 86245.944244,	 426.557457,	 0.649521 
0.655000,	 0.000079,	 0.664602,	 277.377554,	 -0.022423,	 452.024020,	 86248.709789,	 426.245087,	 0.650747 
0.665000,	 0.000079,	 0.665591,	 277.693752,	 -0.022442,	 451.370416,	 86252.077035,	 425.936811,	 0.651960 
0.675000,	 0.000079,	 0.666572,	 278.003838,	 -0.022455,	 450.726012,	 86255.879750,	 425.632655,	 0.653154 
0.685000,	 0.000079,	 0.667543,	 278.305530,	 -0.022465,	 450.091501,	 86259.954844,	 425.332957,	 0.654324 
0.695000,	 0.000079,	 0.668501,	 278.596900,	 -0.022473,	 449.468100,	 86264.151992,	 425.038300,	 0.655463 
0.705000,	 0.000079,	 0.669443,	 278.876394,	 -0.022481,	 448.857409,	 86268.340752,	 424.749453,	 0.656567 
0.715000,	 0.000079,	 0.670365,	 279.142848,	 -0.022490,	 448.261275,	 86272.414835,	 424.467301,	 0.657631 
0.725000,	 0.000079,	 0.671263,	 279.395476,	 -0.022500,	 447.681663,	 86276.293683,	 424.192790,	 0.658652 
0.735000,	 0.000079,	 0.672134,	 279.633847,	 -0.022512,	 447.120550,	 86279.921750,	 423.926870,	 0.659628 
0.745000,	 0.000079,	 0.672974,	 279.857844,	 -0.022526,	 446.579829,	 86283.266093,	 423.670457,	 0.660555 