TITLE = "Final State"
VARIABLES = "X", "Y", "rho", "u", "v", "e", "p", "c", "M"
ZONE I=100, J=200, DATAPACKING=POINT
0.020000,	 0.002500,	 1.049017,	 0.141234,	 0.009085,	 0.634552,	 0.262060,	 0.591389,	 0.239312 
0.060000,	 0.002500,	 0.912522,	 0.114902,	 0.004275,	 0.696645,	 0.251869,	 0.621627,	 0.184968 
0.100000,	 0.002500,	 0.844119,	 0.098442,	 0.002929,	 0.726549,	 0.243680,	 0.635729,	 0.154918 
0.140000,	 0.002500,	 0.805964,	 0.084590,	 0.002253,	 0.742342,	 0.238166,	 0.643200,	 0.131561 
0.180000,	 0.002500,	 0.786254,	 0.072082,	 0.001802,	 0.751575,	 0.235554,	 0.647631,	 0.111337 
0.220000,	 0.002500,	 0.780745,	 0.060151,	 0.001483,	 0.757411,	 0.235973,	 0.650489,	 0.092499 
0.260000,	 0.002500,	 0.788029,	 0.048514,	 0.001215,	 0.761555,	 0.239680,	 0.652542,	 0.074369 
0.300000,	 0.002500,	 0.806138,	 0.037422,	 0.000983,	 0.764993,	 0.246450,	 0.654220,	 0.057221 
0.340000,	 0.002500,	 0.832855,	 0.027322,	 0.000771,	 0.768380,	 0.255855,	 0.655808,	 0.041678 
0.380000,	 0.002500,	 0.865365,	 0.018625,	 0.000587,	 0.772040,	 0.267179,	 0.657454,	 0.028343 
0.420000,	 0.002500,	 0.900845,	 0.011520,	 0.000432,	 0.776068,	 0.279623,	 0.659212,	 0.017488 
0.460000,	 0.002500,	 0.936723,	 0.005952,	 0.000313,	 0.780399,	 0.292400,	 0.661070,	 0.009017 
0.500000,	 0.002500,	 0.971319,	 0.001721,	 0.000223,	 0.784956,	 0.304977,	 0.663004,	 0.002618 
0.540000,	 0.002500,	 1.003480,	 -0.001417,	 0.000158,	 0.789626,	 0.316949,	 0.664974,	 0.002144 
0.580000,	 0.002500,	 1.032715,	 -0.003703,	 0.000111,	 0.794313,	 0.328116,	 0.666942,	 0.005555 
0.620000,	 0.002500,	 1.058894,	 -0.005337,	 0.000077,	 0.798912,	 0.338379,	 0.668867,	 0.007980 
0.660000,	 0.002500,	 1.082158,	 -0.006481,	 0.000053,	 0.803324,	 0.347720,	 0.670708,	 0.009663 
0.700000,	 0.002500,	 1.102801,	 -0.007260,	 0.000035,	 0.807452,	 0.356172,	 0.672427,	 0.010797 
0.740000,	 0.002500,	 1.121178,	 -0.007769,	 0.000023,	 0.811214,	 0.363793,	 0.673990,	 0.011527 
0.780000,	 0.002500,	 1.137653,	 -0.008078,	 0.000014,	 0.814546,	 0.370653,	 0.675372,	 0.011960 
0.820000,	 0.002500,	 1.152557,	 -0.008239,	 0.000007,	 0.817407,	 0.376827,	 0.676557,	 0.012177 
0.860000,	 0.002500,	 1.166172,	 -0.008292,	 0.000002,	 0.819783,	 0.382387,	 0.677539,	 0.012238 
0.900000,	 0.002500,	 1.178726,	 -0.008266,	 -0.000001,	 0.821684,	 0.387400,	 0.678324,	 0.012185 
0.940000,	 0.002500,	 1.190396,	 -0.008182,	 -0.000004,	 0.823137,	 0.391928,	 0.678924,	 0.012052 
0.980000,	 0.002500,	 1.201311,	 -0.008059,	 -0.000005,	 0.824187,	 0.396026,	 0.679357,	 0.011862 
1.020000,	 0.002500,	 1.211565,	 -0.007907,	 -0.000007,	 0.824885,	 0.399746,	 0.679646,	 0.011633 
1.060000,	 0.002500,	 1.221227,	 -0.007735,	 -0.000008,	 0.825287,	 0.403130,	 0.679812,	 0.011378 
1.100000,	 0.002500,	 1.230343,	 -0.007550,	 -0.000008,	 0.825447,	 0.406219,	 0.679878,	 0.011105 
1.140000,	 0.002500,	 1.238950,	 -0.007356,	 -0.000009,	 0.825417,	 0.409047,	 0.679866,	 0.010819 
1.180000,	 0.002500,	 1.247073,	 -0.007155,	 -0.000009,	 0.825243,	 0.411643,	 0.679795,	 0.010526 
1.220000,	 0.002500,	 1.254734,	 -0.006950,	 -0.000010,	 0.824964,	 0.414032,	 0.679681,	 0.010225 
1.260000,	 0.002500,	 1.261948,	 -0.006738,	 -0.000010,	 0.824613,	 0.416236,	 0.679537,	 0.009916 
1.300000,	 0.002500,	 1.268724,	 -0.006521,	 -0.000011,	 0.824214,	 0.418269,	 0.679373,	 0.009598 
1.340000,	 0.002500,	 1.275064,	 -0.006295,	 -0.000012,	 0.823787,	 0.420142,	 0.679198,	 0.009268 
1.380000,	 0.002500,	 1.280961,	 -0.006060,	 -0.000014,	 0.823344,	 0.421859,	 0.679016,	 0.008924 
1.420000,	 0.002500,	 1.286394,	 -0.005814,	 -0.000015,	 0.822892,	 0.423417,	 0.678830,	 0.008564 
1.460000,	 0.002500,	 1.291329,	 -0.005557,	 -0.000017,	 0.822435,	 0.424806,	 0.678642,	 0.008189 
1.500000,	 0.002500,	 1.295721,	 -0.005294,	 -0.000018,	 0.821971,	 0.426011,	 0.678451,	 0.007804 
1.540000,	 0.002500,	 1.299515,	 -0.005033,	 -0.000018,	 0.821495,	 0.427012,	 0.678255,	 0.007421 
1.580000,	 0.002500,	 1.302659,	 -0.004787,	 -0.000018,	 0.821003,	 0.427789,	 0.678052,	 0.007060 
1.620000,	 0.002500,	 1.305118,	 -0.004578,	 -0.000015,	 0.820489,	 0.428328,	 0.677840,	 0.006753 
1.660000,	 0.002500,	 1.306898,	 -0.004434,	 -0.000009,	 0.819953,	 0.428633,	 0.677619,	 0.006544 
1.700000,	 0.002500,	 1.308084,	 -0.004393,	 -0.000000,	 0.819403,	 0.428734,	 0.677392,	 0.006485 
1.740000,	 0.002500,	 1.308877,	 -0.004493,	 0.000013,	 0.818861,	 0.428710,	 0.677168,	 0.006635 
1.780000,	 0.002500,	 1.309653,	 -0.004770,	 0.000031,	 0.818368,	 0.428705,	 0.676964,	 0.007046 
1.820000,	 0.002500,	 1.311029,	 -0.005240,	 0.000051,	 0.817994,	 0.428958,	 0.676808,	 0.007742 
1.860000,	 0.002500,	 1.313950,	 -0.005861,	 0.000068,	 0.817850,	 0.429836,	 0.676747,	 0.008661 
1.900000,	 0.002500,	 1.319783,	 -0.006448,	 0.000065,	 0.818099,	 0.431875,	 0.676849,	 0.009527 
1.940000,	 0.002500,	 1.330308,	 -0.006402,	 -0.000033,	 0.818962,	 0.435778,	 0.677205,	 0.009453 
1.980000,	 0.002500,	 1.346386,	 -0.003707,	 -0.000536,	 0.820544,	 0.441904,	 0.677865,	 0.005526 
2.020000,	 0.012488,	 1.312434,	 -0.003346,	 -0.001326,	 0.815227,	 0.427969,	 0.675665,	 0.005327 
2.060000,	 0.032462,	 1.320177,	 -0.005529,	 -0.002642,	 0.815572,	 0.430670,	 0.675803,	 0.009067 
2.100000,	 0.052437,	 1.326863,	 -0.006252,	 -0.003056,	 0.815733,	 0.432934,	 0.675867,	 0.010297 
2.140000,	 0.072413,	 1.332511,	 -0.006643,	 -0.003258,	 0.815707,	 0.434761,	 0.675855,	 0.010948 
2.180000,	 0.092387,	 1.338081,	 -0.006957,	 -0.003414,	 0.815622,	 0.436531,	 0.675819,	 0.011466 
2.220000,	 0.112363,	 1.343979,	 -0.007230,	 -0.003549,	 0.815526,	 0.438403,	 0.675778,	 0.011918 
2.260000,	 0.132338,	 1.350342,	 -0.007466,	 -0.003666,	 0.815431,	 0.440426,	 0.675738,	 0.012308 
2.300000,	 0.152313,	 1.357211,	 -0.007663,	 -0.003763,	 0.815336,	 0.442614,	 0.675698,	 0.012634 
2.340000,	 0.172287,	 1.364588,	 -0.007821,	 -0.003842,	 0.815239,	 0.444965,	 0.675657,	 0.012896 
2.380000,	 0.192263,	 1.372454,	 -0.007940,	 -0.003901,	 0.815139,	 0.447475,	 0.675615,	 0.013094 
2.420000,	 0.212238,	 1.380785,	 -0.008021,	 -0.003942,	 0.815032,	 0.450132,	 0.675571,	 0.013230 
2.460000,	 0.232212,	 1.389548,	 -0.008066,	 -0.003966,	 0.814918,	 0.452925,	 0.675523,	 0.013306 
2.500000,	 0.252188,	 1.398706,	 -0.008077,	 -0.003972,	 0.814797,	 0.455842,	 0.675473,	 0.013325 
2.540000,	 0.272162,	 1.408221,	 -0.008055,	 -0.003962,	 0.814668,	 0.458870,	 0.675420,	 0.013291 
2.580000,	 0.292137,	 1.418053,	 -0.008003,	 -0.003937,	 0.814532,	 0.461997,	 0.675363,	 0.013207 
2.620000,	 0.312113,	 1.428159,	 -0.007923,	 -0.003899,	 0.814387,	 0.465207,	 0.675304,	 0.013076 
2.660000,	 0.332087,	 1.438501,	 -0.007817,	 -0.003847,	 0.814236,	 0.468490,	 0.675241,	 0.012903 
2.700000,	 0.352063,	 1.449035,	 -0.007687,	 -0.003784,	 0.814078,	 0.471830,	 0.675176,	 0.012691 
2.740000,	 0.372038,	 1.459726,	 -0.007537,	 -0.003711,	 0.813915,	 0.475216,	 0.675109,	 0.012443 
2.780000,	 0.392012,	 1.470532,	 -0.007366,	 -0.003628,	 0.813745,	 0.478635,	 0.675040,	 0.012164 
2.820000,	 0.411988,	 1.481418,	 -0.007179,	 -0.003537,	 0.813571,	 0.482077,	 0.674968,	 0.011857 
2.860000,	 0.431963,	 1.492349,	 -0.006977,	 -0.003438,	 0.813393,	 0.485529,	 0.674895,	 0.011525 
2.900000,	 0.451937,	 1.503291,	 -0.006761,	 -0.003332,	 0.813212,	 0.488981,	 0.674821,	 0.011170 
2.940000,	 0.471913,	 1.514214,	 -0.006534,	 -0.003221,	 0.813028,	 0.492423,	 0.674745,	 0.010796 
2.980000,	 0.491888,	 1.525086,	 -0.006297,	 -0.003105,	 0.812841,	 0.495846,	 0.674668,	 0.010406 
3.020000,	 0.511863,	 1.535881,	 -0.006051,	 -0.002984,	 0.812654,	 0.499242,	 0.674591,	 0.010002 
3.060000,	 0.531837,	 1.546573,	 -0.005798,	 -0.002860,	 0.812465,	 0.502601,	 0.674514,	 0.009585 
3.100000,	 0.551813,	 1.557136,	 -0.005539,	 -0.002733,	 0.812275,	 0.505917,	 0.674436,	 0.009158 
3.140000,	 0.571788,	 1.567547,	 -0.005275,	 -0.002603,	 0.812085,	 0.509182,	 0.674358,	 0.008723 
3.180000,	 0.591762,	 1.577785,	 -0.005007,	 -0.002471,	 0.811896,	 0.512389,	 0.674280,	 0.008280 
3.220000,	 0.611738,	 1.587827,	 -0.004735,	 -0.002337,	 0.811707,	 0.515531,	 0.674202,	 0.007832 
3.260000,	 0.631713,	 1.597653,	 -0.004460,	 -0.002202,	 0.811519,	 0.518602,	 0.674124,	 0.007378 
3.300000,	 0.651687,	 1.607240,	 -0.004183,	 -0.002066,	 0.811331,	 0.521595,	 0.674047,	 0.006921 
3.340000,	 0.671663,	 1.616568,	 -0.003904,	 -0.001929,	 0.811144,	 0.524502,	 0.673970,	 0.006461 
3.380000,	 0.691638,	 1.625615,	 -0.003624,	 -0.001791,	 0.810958,	 0.527317,	 0.673893,	 0.005999 
3.420000,	 0.711612,	 1.634357,	 -0.003344,	 -0.001653,	 0.810772,	 0.530032,	 0.673816,	 0.005536 
3.460000,	 0.731587,	 1.642772,	 -0.003064,	 -0.001515,	 0.810587,	 0.532640,	 0.673740,	 0.005073 
3.500000,	 0.751563,	 1.650835,	 -0.002785,	 -0.001377,	 0.810403,	 0.535133,	 0.673664,	 0.004611 
3.540000,	 0.771537,	 1.658525,	 -0.002508,	 -0.001240,	 0.810220,	 0.537506,	 0.673588,	 0.004153 
3.580000,	 0.791513,	 1.665819,	 -0.002234,	 -0.001105,	 0.810039,	 0.539749,	 0.673513,	 0.003701 
3.620000,	 0.811488,	 1.672696,	 -0.001965,	 -0.000972,	 0.809862,	 0.541860,	 0.673440,	 0.003255 
3.660000,	 0.831462,	 1.679134,	 -0.001701,	 -0.000842,	 0.809691,	 0.543831,	 0.673369,	 0.002819 
3.700000,	 0.851437,	 1.685113,	 -0.001445,	 -0.000715,	 0.809529,	 0.545658,	 0.673302,	 0.002394 
3.740000,	 0.871413,	 1.690605,	 -0.001196,	 -0.000593,	 0.809380,	 0.547336,	 0.673240,	 0.001983 
3.780000,	 0.891388,	 1.695581,	 -0.000958,	 -0.000475,	 0.809247,	 0.548857,	 0.673185,	 0.001588 
3.820000,	 0.911363,	 1.699991,	 -0.000732,	 -0.000363,	 0.809136,	 0.550209,	 0.673139,	 0.001213 
3.860000,	 0.931337,	 1.703768,	 -0.000522,	 -0.000259,	 0.809049,	 0.551373,	 0.673103,	 0.000865 
3.900000,	 0.951313,	 1.706831,	 -0.000336,	 -0.000167,	 0.808991,	 0.552324,	 0.673079,	 0.000558 
3.940000,	 0.971287,	 1.709147,	 -0.000192,	 -0.000094,	 0.808971,	 0.553060,	 0.673070,	 0.000318 
3.980000,	 0.991262,	 1.711035,	 -0.000076,	 -0.000042,	 0.809034,	 0.553714,	 0.673096,	 0.000129 
0.020000,	 0.007525,	 1.062732,	 0.379637,	 0.023443,	 0.676391,	 0.256779,	 0.581610,	 0.653977 
0.060000,	 0.007525,	 0.955173,	 0.329758,	 0.014836,	 0.719295,	 0.254005,	 0.610161,	 0.540990 
0.100000,	 0.007525,	 0.878740,	 0.285995,	 0.011047,	 0.739973,	 0.245701,	 0.625658,	 0.457451 
0.140000,	 0.007525,	 0.831798,	 0.248005,	 0.008593,	 0.751259,	 0.239714,	 0.635187,	 0.390678 
0.180000,	 0.007525,	 0.805513,	 0.214066,	 0.006923,	 0.757897,	 0.236808,	 0.641543,	 0.333848 
0.220000,	 0.007525,	 0.795139,	 0.181833,	 0.005791,	 0.761982,	 0.237090,	 0.646098,	 0.281575 
0.260000,	 0.007525,	 0.798719,	 0.150171,	 0.004886,	 0.764807,	 0.240740,	 0.649593,	 0.231300 
0.300000,	 0.007525,	 0.813965,	 0.119500,	 0.004096,	 0.767225,	 0.247470,	 0.652413,	 0.183274 
0.340000,	 0.007525,	 0.838511,	 0.090972,	 0.003346,	 0.769843,	 0.256819,	 0.654822,	 0.139020 
0.380000,	 0.007525,	 0.869427,	 0.065791,	 0.002651,	 0.772955,	 0.268057,	 0.656994,	 0.100220 
0.420000,	 0.007525,	 0.903784,	 0.044652,	 0.002035,	 0.776615,	 0.280396,	 0.659049,	 0.067822 
0.460000,	 0.007525,	 0.938892,	 0.027607,	 0.001535,	 0.780712,	 0.293058,	 0.661048,	 0.041827 
0.500000,	 0.007525,	 0.972969,	 0.014267,	 0.001135,	 0.785128,	 0.305522,	 0.663034,	 0.021586 
0.540000,	 0.007525,	 1.004777,	 0.004059,	 0.000833,	 0.789718,	 0.317393,	 0.665009,	 0.006231 
0.580000,	 0.007525,	 1.033764,	 -0.003627,	 0.000605,	 0.794364,	 0.328471,	 0.666963,	 0.005513 
0.620000,	 0.007525,	 1.059763,	 -0.009331,	 0.000434,	 0.798947,	 0.338659,	 0.668869,	 0.013965 
0.660000,	 0.007525,	 1.082891,	 -0.013507,	 0.000308,	 0.803356,	 0.347939,	 0.670692,	 0.020144 
0.700000,	 0.007525,	 1.103425,	 -0.016516,	 0.000215,	 0.807488,	 0.356341,	 0.672396,	 0.024565 
0.740000,	 0.007525,	 1.121715,	 -0.018639,	 0.000145,	 0.811256,	 0.363921,	 0.673948,	 0.027657 
0.780000,	 0.007525,	 1.138119,	 -0.020090,	 0.000094,	 0.814593,	 0.370750,	 0.675321,	 0.029750 
0.820000,	 0.007525,	 1.152966,	 -0.021034,	 0.000055,	 0.817458,	 0.376898,	 0.676500,	 0.031092 
0.860000,	 0.007525,	 1.166535,	 -0.021594,	 0.000027,	 0.819836,	 0.382438,	 0.677479,	 0.031874 
0.900000,	 0.007525,	 1.179052,	 -0.021866,	 0.000006,	 0.821735,	 0.387435,	 0.678261,	 0.032238 
0.940000,	 0.007525,	 1.190692,	 -0.021922,	 -0.000010,	 0.823186,	 0.391950,	 0.678859,	 0.032292 
0.980000,	 0.007525,	 1.201584,	 -0.021816,	 -0.000021,	 0.824231,	 0.396039,	 0.679291,	 0.032116 
1.020000,	 0.007525,	 1.211819,	 -0.021592,	 -0.000029,	 0.824924,	 0.399750,	 0.679578,	 0.031772 
1.060000,	 0.007525,	 1.221464,	 -0.021279,	 -0.000035,	 0.825320,	 0.403129,	 0.679744,	 0.031305 
1.100000,	 0.007525,	 1.230565,	 -0.020902,	 -0.000040,	 0.825475,	 0.406213,	 0.679811,	 0.030746 
1.140000,	 0.007525,	 1.239158,	 -0.020475,	 -0.000044,	 0.825440,	 0.409036,	 0.679801,	 0.030120 
1.180000,	 0.007525,	 1.247268,	 -0.020012,	 -0.000047,	 0.825261,	 0.411629,	 0.679731,	 0.029441 
1.220000,	 0.007525,	 1.254915,	 -0.019517,	 -0.000049,	 0.824978,	 0.414015,	 0.679618,	 0.028718 
1.260000,	 0.007525,	 1.262114,	 -0.018994,	 -0.000053,	 0.824623,	 0.416216,	 0.679476,	 0.027954 
1.300000,	 0.007525,	 1.268875,	 -0.018443,	 -0.000057,	 0.824221,	 0.418247,	 0.679315,	 0.027149 
1.340000,	 0.007525,	 1.275199,	 -0.017862,	 -0.000061,	 0.823791,	 0.420117,	 0.679142,	 0.026301 
1.380000,	 0.007525,	 1.281078,	 -0.017251,	 -0.000066,	 0.823345,	 0.421832,	 0.678962,	 0.025408 
1.420000,	 0.007525,	 1.286494,	 -0.016609,	 -0.000072,	 0.822891,	 0.423387,	 0.678780,	 0.024468 
1.460000,	 0.007525,	 1.291413,	 -0.015941,	 -0.000077,	 0.822432,	 0.424774,	 0.678595,	 0.023491 
1.500000,	 0.007525,	 1.295792,	 -0.015261,	 -0.000080,	 0.821967,	 0.425979,	 0.678407,	 0.022496 
1.540000,	 0.007525,	 1.299578,	 -0.014593,	 -0.000080,	 0.821490,	 0.426981,	 0.678214,	 0.021518 
1.580000,	 0.007525,	 1.302722,	 -0.013978,	 -0.000074,	 0.820998,	 0.427762,	 0.678015,	 0.020616 
1.620000,	 0.007525,	 1.305192,	 -0.013471,	 -0.000060,	 0.820487,	 0.428310,	 0.677807,	 0.019875 
1.660000,	 0.007525,	 1.306997,	 -0.013149,	 -0.000033,	 0.819956,	 0.428626,	 0.677589,	 0.019406 
1.700000,	 0.007525,	 1.308222,	 -0.013101,	 0.000007,	 0.819413,	 0.428745,	 0.677365,	 0.019341 
1.740000,	 0.007525,	 1.309070,	 -0.013417,	 0.000062,	 0.818881,	 0.428742,	 0.677143,	 0.019814 
1.780000,	 0.007525,	 1.309909,	 -0.014165,	 0.000130,	 0.818399,	 0.428759,	 0.676940,	 0.020925 
1.820000,	 0.007525,	 1.311340,	 -0.015342,	 0.000200,	 0.818036,	 0.429028,	 0.676782,	 0.022670 
1.860000,	 0.007525,	 1.314268,	 -0.016777,	 0.000247,	 0.817896,	 0.429900,	 0.676715,	 0.024795 
1.900000,	 0.007525,	 1.319979,	 -0.017937,	 0.000195,	 0.818130,	 0.431881,	 0.676803,	 0.026505 
1.940000,	 0.007525,	 1.330135,	 -0.017484,	 -0.000190,	 0.818940,	 0.435639,	 0.677142,	 0.025822 
1.980000,	 0.007525,	 1.346096,	 -0.012360,	 -0.001698,	 0.820500,	 0.441747,	 0.677817,	 0.018406 
2.020000,	 0.017487,	 1.312369,	 -0.011668,	 -0.004509,	 0.815216,	 0.427905,	 0.675631,	 0.018514 
2.060000,	 0.037412,	 1.320908,	 -0.016074,	 -0.007630,	 0.815682,	 0.430892,	 0.675791,	 0.026330 
2.100000,	 0.057337,	 1.327523,	 -0.018071,	 -0.008826,	 0.815835,	 0.433108,	 0.675836,	 0.029757 
2.140000,	 0.077262,	 1.333125,	 -0.019269,	 -0.009455,	 0.815804,	 0.434905,	 0.675812,	 0.031761 
2.180000,	 0.097186,	 1.338696,	 -0.020195,	 -0.009924,	 0.815722,	 0.436666,	 0.675768,	 0.033298 
2.220000,	 0.117111,	 1.344612,	 -0.020974,	 -0.010318,	 0.815630,	 0.438536,	 0.675722,	 0.034592 
2.260000,	 0.137036,	 1.350996,	 -0.021631,	 -0.010652,	 0.815539,	 0.440559,	 0.675677,	 0.035685 
2.300000,	 0.156961,	 1.357886,	 -0.022172,	 -0.010929,	 0.815448,	 0.442748,	 0.675633,	 0.036587 
2.340000,	 0.176885,	 1.365279,	 -0.022599,	 -0.011149,	 0.815354,	 0.445101,	 0.675589,	 0.037300 
2.380000,	 0.196810,	 1.373159,	 -0.022914,	 -0.011314,	 0.815255,	 0.447611,	 0.675544,	 0.037829 
2.420000,	 0.216735,	 1.381500,	 -0.023122,	 -0.011426,	 0.815150,	 0.450268,	 0.675498,	 0.038181 
2.460000,	 0.236660,	 1.390268,	 -0.023228,	 -0.011487,	 0.815037,	 0.453061,	 0.675450,	 0.038363 
2.500000,	 0.256584,	 1.399428,	 -0.023235,	 -0.011498,	 0.814915,	 0.455978,	 0.675399,	 0.038384 
2.540000,	 0.276509,	 1.408940,	 -0.023152,	 -0.011465,	 0.814785,	 0.459005,	 0.675346,	 0.038254 
2.580000,	 0.296434,	 1.418766,	 -0.022983,	 -0.011388,	 0.814647,	 0.462131,	 0.675291,	 0.037982 
2.620000,	 0.316358,	 1.428862,	 -0.022735,	 -0.011272,	 0.814501,	 0.465339,	 0.675233,	 0.037580 
2.660000,	 0.336283,	 1.439190,	 -0.022414,	 -0.011119,	 0.814347,	 0.468620,	 0.675173,	 0.037058 
2.700000,	 0.356208,	 1.449709,	 -0.022028,	 -0.010934,	 0.814186,	 0.471958,	 0.675111,	 0.036427 
2.740000,	 0.376133,	 1.460381,	 -0.021582,	 -0.010718,	 0.814019,	 0.475341,	 0.675047,	 0.035696 
2.780000,	 0.396058,	 1.471165,	 -0.021082,	 -0.010475,	 0.813846,	 0.478758,	 0.674980,	 0.034877 
2.820000,	 0.415982,	 1.482029,	 -0.020535,	 -0.010208,	 0.813668,	 0.482196,	 0.674912,	 0.033978 
2.860000,	 0.435907,	 1.492935,	 -0.019945,	 -0.009920,	 0.813486,	 0.485644,	 0.674843,	 0.033009 
2.900000,	 0.455832,	 1.503851,	 -0.019319,	 -0.009613,	 0.813300,	 0.489093,	 0.674772,	 0.031979 
2.940000,	 0.475757,	 1.514746,	 -0.018660,	 -0.009290,	 0.813112,	 0.492532,	 0.674701,	 0.030894 
2.980000,	 0.495681,	 1.525591,	 -0.017973,	 -0.008952,	 0.812921,	 0.495951,	 0.674628,	 0.029763 
3.020000,	 0.515606,	 1.536358,	 -0.017262,	 -0.008602,	 0.812729,	 0.499343,	 0.674555,	 0.028591 
3.060000,	 0.535531,	 1.547020,	 -0.016531,	 -0.008241,	 0.812536,	 0.502698,	 0.674481,	 0.027386 
3.100000,	 0.555455,	 1.557555,	 -0.015783,	 -0.007872,	 0.812342,	 0.506010,	 0.674407,	 0.026152 
3.140000,	 0.575380,	 1.567937,	 -0.015020,	 -0.007496,	 0.812148,	 0.509270,	 0.674332,	 0.024893 
3.180000,	 0.595305,	 1.578147,	 -0.014246,	 -0.007113,	 0.811954,	 0.512473,	 0.674258,	 0.023615 
3.220000,	 0.615230,	 1.588160,	 -0.013461,	 -0.006725,	 0.811761,	 0.515611,	 0.674183,	 0.022320 
3.260000,	 0.635154,	 1.597958,	 -0.012669,	 -0.006333,	 0.811569,	 0.518677,	 0.674109,	 0.021011 
3.300000,	 0.655079,	 1.607518,	 -0.011871,	 -0.005938,	 0.811378,	 0.521665,	 0.674034,	 0.019692 
3.340000,	 0.675004,	 1.616820,	 -0.011068,	 -0.005540,	 0.811187,	 0.524568,	 0.673960,	 0.018365 
3.380000,	 0.694929,	 1.625841,	 -0.010263,	 -0.005140,	 0.810998,	 0.527378,	 0.673886,	 0.017032 
3.420000,	 0.714854,	 1.634557,	 -0.009456,	 -0.004740,	 0.810809,	 0.530089,	 0.673811,	 0.015698 
3.460000,	 0.734778,	 1.642948,	 -0.008650,	 -0.004340,	 0.810620,	 0.532692,	 0.673737,	 0.014364 
3.500000,	 0.754703,	 1.650988,	 -0.007848,	 -0.003941,	 0.810433,	 0.535181,	 0.673662,	 0.013036 
3.540000,	 0.774628,	 1.658656,	 -0.007052,	 -0.003546,	 0.810247,	 0.537548,	 0.673588,	 0.011718 
3.580000,	 0.794552,	 1.665930,	 -0.006266,	 -0.003155,	 0.810064,	 0.539787,	 0.673515,	 0.010416 
3.620000,	 0.814477,	 1.672788,	 -0.005493,	 -0.002770,	 0.809885,	 0.541893,	 0.673443,	 0.009135 
3.660000,	 0.834402,	 1.679209,	 -0.004737,	 -0.002393,	 0.809711,	 0.543860,	 0.673372,	 0.007881 
3.700000,	 0.854327,	 1.685172,	 -0.004002,	 -0.002026,	 0.809547,	 0.545684,	 0.673306,	 0.006662 
3.740000,	 0.874251,	 1.690650,	 -0.003292,	 -0.001671,	 0.809396,	 0.547357,	 0.673244,	 0.005483 
3.780000,	 0.894176,	 1.695613,	 -0.002611,	 -0.001332,	 0.809261,	 0.548875,	 0.673189,	 0.004354 
3.820000,	 0.914101,	 1.700012,	 -0.001968,	 -0.001010,	 0.809148,	 0.550223,	 0.673143,	 0.003286 
3.860000,	 0.934026,	 1.703781,	 -0.001376,	 -0.000712,	 0.809060,	 0.551383,	 0.673107,	 0.002301 
3.900000,	 0.953951,	 1.706838,	 -0.000858,	 -0.000450,	 0.809000,	 0.552332,	 0.673082,	 0.001440 
3.940000,	 0.973875,	 1.709153,	 -0.000454,	 -0.000240,	 0.808979,	 0.553068,	 0.673074,	 0.000763 
3.980000,	 0.993800,	 1.711040,	 -0.000158,	 -0.000098,	 0.809042,	 0.553721,	 0.673100,	 0.000276 
0.020000,	 0.012600,	 1.132316,	 0.668356,	 0.039418,	 0.801424,	 0.261473,	 0.568583,	 1.177521 
0.060000,	 0.012600,	 1.035423,	 0.532322,	 0.033121,	 0.771060,	 0.260441,	 0.593417,	 0.898779 
0.100000,	 0.012600,	 0.938445,	 0.456813,	 0.024414,	 0.767329,	 0.248760,	 0.609186,	 0.750945 
0.140000,	 0.012600,	 0.876420,	 0.399205,	 0.018532,	 0.768516,	 0.241423,	 0.621008,	 0.643527 
0.180000,	 0.012600,	 0.839410,	 0.349294,	 0.014869,	 0.769956,	 0.238004,	 0.630041,	 0.554900 
0.220000,	 0.012600,	 0.820902,	 0.301729,	 0.012599,	 0.770703,	 0.238095,	 0.637227,	 0.473917 
0.260000,	 0.012600,	 0.818028,	 0.254210,	 0.010922,	 0.771025,	 0.241696,	 0.643153,	 0.395620 
0.300000,	 0.012600,	 0.828067,	 0.207143,	 0.009468,	 0.771486,	 0.248416,	 0.648069,	 0.319964 
0.340000,	 0.012600,	 0.848510,	 0.162312,	 0.008019,	 0.772612,	 0.257746,	 0.652126,	 0.249200 
0.380000,	 0.012600,	 0.876340,	 0.121794,	 0.006582,	 0.774645,	 0.268934,	 0.655466,	 0.186083 
0.420000,	 0.012600,	 0.908507,	 0.086980,	 0.005232,	 0.777571,	 0.281192,	 0.658266,	 0.132374 
0.460000,	 0.012600,	 0.942140,	 0.058274,	 0.004071,	 0.781197,	 0.293756,	 0.660693,	 0.088417 
0.500000,	 0.012600,	 0.975268,	 0.035316,	 0.003106,	 0.785328,	 0.306117,	 0.662897,	 0.053481 
0.540000,	 0.012600,	 1.006480,	 0.017366,	 0.002344,	 0.789759,	 0.317889,	 0.664965,	 0.026352 
0.580000,	 0.012600,	 1.035096,	 0.003553,	 0.001750,	 0.794327,	 0.328879,	 0.666947,	 0.005938 
0.620000,	 0.012600,	 1.060857,	 -0.006942,	 0.001294,	 0.798883,	 0.338990,	 0.668850,	 0.010557 
0.660000,	 0.012600,	 1.083824,	 -0.014827,	 0.000948,	 0.803295,	 0.348204,	 0.670659,	 0.022153 
0.700000,	 0.012600,	 1.104242,	 -0.020685,	 0.000685,	 0.807447,	 0.356552,	 0.672347,	 0.030782 
0.740000,	 0.012600,	 1.122444,	 -0.024977,	 0.000486,	 0.811240,	 0.364088,	 0.673884,	 0.037071 
0.780000,	 0.012600,	 1.138777,	 -0.028063,	 0.000335,	 0.814602,	 0.370881,	 0.675246,	 0.041563 
0.820000,	 0.012600,	 1.153566,	 -0.030223,	 0.000220,	 0.817489,	 0.377000,	 0.676415,	 0.044682 
0.860000,	 0.012600,	 1.167089,	 -0.031672,	 0.000134,	 0.819882,	 0.382516,	 0.677387,	 0.046757 
0.900000,	 0.012600,	 1.179570,	 -0.032576,	 0.000068,	 0.821791,	 0.387494,	 0.678164,	 0.048036 
0.940000,	 0.012600,	 1.191181,	 -0.033064,	 0.000019,	 0.823246,	 0.391994,	 0.678758,	 0.048713 
0.980000,	 0.012600,	 1.202048,	 -0.033234,	 -0.000018,	 0.824292,	 0.396070,	 0.679186,	 0.048932 
1.020000,	 0.012600,	 1.212264,	 -0.033163,	 -0.000046,	 0.824982,	 0.399772,	 0.679472,	 0.048806 
1.060000,	 0.012600,	 1.221891,	 -0.032907,	 -0.000067,	 0.825373,	 0.403142,	 0.679636,	 0.048419 
1.100000,	 0.012600,	 1.230977,	 -0.032511,	 -0.000083,	 0.825522,	 0.406219,	 0.679703,	 0.047831 
1.140000,	 0.012600,	 1.239554,	 -0.032007,	 -0.000096,	 0.825481,	 0.409037,	 0.679693,	 0.047090 
1.180000,	 0.012600,	 1.247647,	 -0.031416,	 -0.000106,	 0.825297,	 0.411625,	 0.679625,	 0.046226 
1.220000,	 0.012600,	 1.255277,	 -0.030755,	 -0.000116,	 0.825008,	 0.414008,	 0.679514,	 0.045260 
1.260000,	 0.012600,	 1.262457,	 -0.030031,	 -0.000126,	 0.824648,	 0.416205,	 0.679375,	 0.044204 
1.300000,	 0.012600,	 1.269197,	 -0.029249,	 -0.000136,	 0.824241,	 0.418233,	 0.679217,	 0.043064 
1.340000,	 0.012600,	 1.275499,	 -0.028411,	 -0.000147,	 0.823807,	 0.420100,	 0.679048,	 0.041840 
1.380000,	 0.012600,	 1.281356,	 -0.027518,	 -0.000159,	 0.823358,	 0.421812,	 0.678873,	 0.040536 
1.420000,	 0.012600,	 1.286749,	 -0.026575,	 -0.000171,	 0.822901,	 0.423365,	 0.678695,	 0.039157 
1.460000,	 0.012600,	 1.291647,	 -0.025594,	 -0.000181,	 0.822439,	 0.424751,	 0.678515,	 0.037722 
1.500000,	 0.012600,	 1.296007,	 -0.024599,	 -0.000187,	 0.821971,	 0.425956,	 0.678332,	 0.036265 
1.540000,	 0.012600,	 1.299780,	 -0.023631,	 -0.000183,	 0.821494,	 0.426960,	 0.678145,	 0.034847 
1.580000,	 0.012600,	 1.302918,	 -0.022752,	 -0.000165,	 0.821003,	 0.427745,	 0.677950,	 0.033561 
1.620000,	 0.012600,	 1.305392,	 -0.022049,	 -0.000128,	 0.820494,	 0.428300,	 0.677747,	 0.032534 
1.660000,	 0.012600,	 1.307214,	 -0.021634,	 -0.000064,	 0.819968,	 0.428627,	 0.677533,	 0.031931 
1.700000,	 0.012600,	 1.308471,	 -0.021631,	 0.000029,	 0.819433,	 0.428759,	 0.677312,	 0.031937 
1.740000,	 0.012600,	 1.309362,	 -0.022163,	 0.000153,	 0.818911,	 0.428772,	 0.677091,	 0.032733 
1.780000,	 0.012600,	 1.310250,	 -0.023303,	 0.000297,	 0.818441,	 0.428803,	 0.676886,	 0.034429 
1.820000,	 0.012600,	 1.311722,	 -0.025008,	 0.000433,	 0.818088,	 0.429078,	 0.676723,	 0.036959 
1.860000,	 0.012600,	 1.314650,	 -0.026982,	 0.000497,	 0.817952,	 0.429937,	 0.676645,	 0.039883 
1.900000,	 0.012600,	 1.320267,	 -0.028440,	 0.000330,	 0.818174,	 0.431870,	 0.676721,	 0.042029 
1.940000,	 0.012600,	 1.330185,	 -0.027680,	 -0.000472,	 0.818949,	 0.435538,	 0.677050,	 0.040890 
1.980000,	 0.012600,	 1.346015,	 -0.021489,	 -0.002992,	 0.820480,	 0.441625,	 0.677744,	 0.032013 
2.020000,	 0.022537,	 1.312583,	 -0.020742,	 -0.007959,	 0.815250,	 0.427904,	 0.675575,	 0.032886 
2.060000,	 0.042410,	 1.321687,	 -0.026410,	 -0.012323,	 0.815807,	 0.431072,	 0.675732,	 0.043129 
2.100000,	 0.062285,	 1.328320,	 -0.029401,	 -0.014212,	 0.815968,	 0.433263,	 0.675754,	 0.048325 
2.140000,	 0.082158,	 1.333932,	 -0.031329,	 -0.015267,	 0.815943,	 0.435041,	 0.675713,	 0.051577 
2.180000,	 0.102033,	 1.339531,	 -0.032820,	 -0.016042,	 0.815869,	 0.436795,	 0.675657,	 0.054067 
2.220000,	 0.121907,	 1.345484,	 -0.034053,	 -0.016681,	 0.815786,	 0.438664,	 0.675602,	 0.056126 
2.260000,	 0.141781,	 1.351905,	 -0.035078,	 -0.017215,	 0.815702,	 0.440688,	 0.675548,	 0.057842 
2.300000,	 0.161655,	 1.358828,	 -0.035911,	 -0.017654,	 0.815617,	 0.442878,	 0.675498,	 0.059240 
2.340000,	 0.181529,	 1.366250,	 -0.036559,	 -0.018001,	 0.815529,	 0.445233,	 0.675449,	 0.060331 
2.380000,	 0.201403,	 1.374152,	 -0.037028,	 -0.018258,	 0.815433,	 0.447743,	 0.675400,	 0.061127 
2.420000,	 0.221276,	 1.382509,	 -0.037326,	 -0.018430,	 0.815330,	 0.450401,	 0.675351,	 0.061639 
2.460000,	 0.241150,	 1.391287,	 -0.037460,	 -0.018519,	 0.815218,	 0.453195,	 0.675302,	 0.061880 
2.500000,	 0.261024,	 1.400449,	 -0.037439,	 -0.018530,	 0.815096,	 0.456112,	 0.675252,	 0.061865 
2.540000,	 0.280899,	 1.409958,	 -0.037274,	 -0.018469,	 0.814965,	 0.459138,	 0.675200,	 0.061609 
2.580000,	 0.300773,	 1.419774,	 -0.036974,	 -0.018339,	 0.814824,	 0.462263,	 0.675148,	 0.061131 
2.620000,	 0.320647,	 1.429855,	 -0.036550,	 -0.018146,	 0.814674,	 0.465470,	 0.675094,	 0.060445 
2.660000,	 0.340521,	 1.440164,	 -0.036011,	 -0.017895,	 0.814516,	 0.468749,	 0.675038,	 0.059571 
2.700000,	 0.360395,	 1.450657,	 -0.035369,	 -0.017591,	 0.814351,	 0.472085,	 0.674981,	 0.058524 
2.740000,	 0.380269,	 1.461301,	 -0.034634,	 -0.017240,	 0.814178,	 0.475466,	 0.674923,	 0.057321 
2.780000,	 0.400143,	 1.472052,	 -0.033814,	 -0.016845,	 0.813999,	 0.478880,	 0.674863,	 0.055978 
2.820000,	 0.420017,	 1.482881,	 -0.032919,	 -0.016412,	 0.813816,	 0.482315,	 0.674802,	 0.054510 
2.860000,	 0.439891,	 1.493749,	 -0.031958,	 -0.015945,	 0.813627,	 0.485761,	 0.674740,	 0.052932 
2.900000,	 0.459765,	 1.504625,	 -0.030939,	 -0.015448,	 0.813435,	 0.489206,	 0.674677,	 0.051256 
2.940000,	 0.479638,	 1.515479,	 -0.029869,	 -0.014925,	 0.813240,	 0.492641,	 0.674612,	 0.049496 
2.980000,	 0.499513,	 1.526281,	 -0.028756,	 -0.014379,	 0.813042,	 0.496057,	 0.674547,	 0.047662 
3.020000,	 0.519386,	 1.537005,	 -0.027605,	 -0.013814,	 0.812843,	 0.499445,	 0.674482,	 0.045765 
3.060000,	 0.539261,	 1.547624,	 -0.026422,	 -0.013231,	 0.812643,	 0.502796,	 0.674415,	 0.043815 
3.100000,	 0.559134,	 1.558115,	 -0.025212,	 -0.012635,	 0.812443,	 0.506104,	 0.674348,	 0.041819 
3.140000,	 0.579009,	 1.568454,	 -0.023979,	 -0.012027,	 0.812242,	 0.509360,	 0.674281,	 0.039785 
3.180000,	 0.598882,	 1.578621,	 -0.022728,	 -0.011409,	 0.812043,	 0.512559,	 0.674213,	 0.037720 
3.220000,	 0.618757,	 1.588593,	 -0.021462,	 -0.010782,	 0.811844,	 0.515692,	 0.674145,	 0.035628 
3.260000,	 0.638630,	 1.598350,	 -0.020184,	 -0.010150,	 0.811646,	 0.518754,	 0.674076,	 0.033516 
3.300000,	 0.658505,	 1.607870,	 -0.018896,	 -0.009511,	 0.811448,	 0.521738,	 0.674007,	 0.031387 
3.340000,	 0.678379,	 1.617133,	 -0.017601,	 -0.008870,	 0.811253,	 0.524636,	 0.673938,	 0.029245 
3.380000,	 0.698253,	 1.626117,	 -0.016302,	 -0.008225,	 0.811058,	 0.527442,	 0.673869,	 0.027096 
3.420000,	 0.718127,	 1.634798,	 -0.015002,	 -0.007579,	 0.810864,	 0.530147,	 0.673799,	 0.024944 
3.460000,	 0.738001,	 1.643155,	 -0.013704,	 -0.006934,	 0.810671,	 0.532746,	 0.673728,	 0.022795 
3.500000,	 0.757875,	 1.651164,	 -0.012412,	 -0.006291,	 0.810480,	 0.535230,	 0.673657,	 0.020656 
3.540000,	 0.777749,	 1.658803,	 -0.011131,	 -0.005653,	 0.810290,	 0.537593,	 0.673586,	 0.018534 
3.580000,	 0.797623,	 1.666049,	 -0.009866,	 -0.005022,	 0.810103,	 0.539827,	 0.673516,	 0.016437 
3.620000,	 0.817497,	 1.672883,	 -0.008623,	 -0.004401,	 0.809920,	 0.541929,	 0.673446,	 0.014376 
3.660000,	 0.837371,	 1.679282,	 -0.007408,	 -0.003793,	 0.809743,	 0.543892,	 0.673377,	 0.012360 
3.700000,	 0.857245,	 1.685226,	 -0.006228,	 -0.003202,	 0.809576,	 0.545711,	 0.673312,	 0.010400 
3.740000,	 0.877119,	 1.690688,	 -0.005088,	 -0.002631,	 0.809422,	 0.547381,	 0.673251,	 0.008508 
3.780000,	 0.896993,	 1.695637,	 -0.003999,	 -0.002083,	 0.809285,	 0.548894,	 0.673197,	 0.006699 
3.820000,	 0.916867,	 1.700025,	 -0.002973,	 -0.001567,	 0.809169,	 0.550239,	 0.673150,	 0.004993 
3.860000,	 0.936741,	 1.703785,	 -0.002033,	 -0.001090,	 0.809078,	 0.551396,	 0.673114,	 0.003427 
3.900000,	 0.956615,	 1.706837,	 -0.001217,	 -0.000670,	 0.809017,	 0.552343,	 0.673089,	 0.002064 
3.940000,	 0.976489,	 1.709152,	 -0.000584,	 -0.000333,	 0.808995,	 0.553078,	 0.673080,	 0.000998 
3.980000,	 0.996363,	 1.711040,	 -0.000141,	 -0.000110,	 0.809057,	 0.553731,	 0.673106,	 0.000266 