TITLE = "Initial State"
VARIABLES = "X", "Y", "rho", "u", "v", "T", "p", "c", "M"
ZONE I=100, J=100, DATAPACKING=POINT
0.015000,	 0.007425,	 1.000000,	 1000.000000,	 0.000000,	 300.000000,	 86129.212707,	 347.247603,	 2.879789 
0.045000,	 0.007425,	 1.000000,	 1000.000000,	 0.000000,	 300.000000,	 86129.212707,	 347.247603,	 2.879789 
0.075000,	 0.007425,	 1.000000,	 1000.000000,	 0.000000,	 300.000000,	 86129.212707,	 347.247603,	 2.879789 
0.105000,	 0.007425,	 1.000000,	 1000.000000,	 0.000000,	 300.000000,	 86129.212707,	 347.247603,	 2.879789 
0.135000,	 0.007425,	 1.000000,	 1000.000000,	 0.000000,	 300.000000,	 86129.212707,	 347.247603,	 2.879789 
0.165000,	 0.007425,	 1.000000,	 1000.000000,	 0.000000,	 300.000000,	 86129.212707,	 347.247603,	 2.879789 
0.195000,	 0.007425,	 1.000000,	 1000.000000,	 0.000000,	 300.000000,	 86129.212707,	 347.247603,	 2.879789 
0.225000,	 0.007425,	 1.000000,	 1000.000000,	 0.000000,	 300.000000,	 86129.212707,	 347.247603,	 2.879789 
0.255000,	 0.007425,	 1.000000,	 1000.000000,	 0.000000,	 300.000000,	 86129.212707,	 347.247603,	 2.879789 
0.285000,	 0.007425,	 1.000000,	 1000.000000,	 0.000000,	 300.000000,	 86129.212707,	 347.247603,	 2.879789 
0.315000,	 0.007425,	 1.000000,	 1000.000000,	 0.000000,	 300.000000,	 86129.212707,	 347.247603,	 2.879789 
0.345000,	 0.007425,	 1.000000,	 1000.000000,	 0.000000,	 300.000000,	 86129.212707,	 347.247603,	 2.879789 
0.375000,	 0.007425,	 1.000000,	 1000.000000,	 0.000000,	 300.000000,	 86129.212707,	 347.247603,	 2.879789 
0.405000,	 0.007425,	 1.000000,	 1000.000000,	 0.000000,	 300.000000,	 86129.212707,	 347.247603,	 2.879789 
0.435000,	 0.007425,	 1.000000,	 1000.000000,	 0.000000,	 300.000000,	 86129.212707,	 347.247603,	 2.879789 
0.465000,	 0.007425,	 1.000000,	 1000.000000,	 0.000000,	 300.000000,	 86129.212707,	 347.247603,	 2.879789 
0.495000,	 0.007425,	 1.000000,	 1000.000000,	 0.000000,	 300.000000,	 86129.212707,	 347.247603,	 2.879789 
0.525000,	 0.007425,	 1.000000,	 1000.000000,	 0.000000,	 300.000000,	 86129.212707,	 347.247603,	 2.879789 
0.555000,	 0.007425,	 1.000000,	 1000.000000,	 0.000000,	 300.000000,	 86129.212707,	 347.247603,	 2.879789 
0.585000,	 0.007425,	 1.000000,	 1000.000000,	 0.000000,	 300.000000,	 86129.212707,	 347.247603,	 2.879789 
0.615000,	 0.007425,	 1.000000,	 1000.000000,	 0.000000,	 300.000000,	 86129.212707,	 347.247603,	 2.879789 
0.645000,	 0.007425,	 1.000000,	 1000.000000,	 0.000000,	 300.000000,	 86129.212707,	 347.247603,	 2.879789 
0.675000,	 0.007425,	 1.000000,	 1000.000000,	 0.000000,	 300.000000,	 86129.212707,	 347.247603,	 2.879789 
0.705000,	 0.007425,	 1.000000,	 1000.000000,	 0.000000,	 300.000000,	 86129.212707,	 347.247603,	 2.879789 
0.735000,	 0.007425,	 1.000000,	 1000.000000,	 0.000000,	 300.000000,	 86129.212707,	 347.247603,	 2.879789 
0.765000,	 0.007425,	 1.000000,	 1000.000000,	 0.000000,	 300.000000,	 86129.212707,	 347.247603,	 2.879789 
0.795000,	 0.007425,	 1.000000,	 1000.000000,	 0.000000,	 300.000000,	 86129.212707,	 347.247603,	 2.879789 
0.825000,	 0.007425,	 1.000000,	 1000.000000,	 0.000000,	 300.000000,	 86129.212707,	 347.247603,	 2.879789 
0.855000,	 0.007425,	 1.000000,	 1000.000000,	 0.000000,	 300.000000,	 86129.212707,	 347.247603,	 2.879789 
0.885000,	 0.007425,	 1.000000,	 1000.000000,	 0.000000,	 300.000000,	 86129.212707,	 347.247603,	 2.879789 
0.915000,	 0.007425,	 1.000000,	 1000.000000,	 0.000000,	 300.000000,	 86129.212707,	 347.247603,	 2.879789 
0.945000,	 0.007425,	 1.000000,	 1000.000000,	 0.000000,	 300.000000,	 86129.212707,	 347.247603,	 2.879789 
0.975000,	 0.007425,	 1.000000,	 1000.000000,	 0.000000,	 300.000000,	 86129.212707,	 347.247603,	 2.879789 
1.005000,	 0.009913,	 1.000000,	 1000.000000,	 0.000000,	 300.000000,	 86129.212707,	 347.247603,	 2.879789 
1.035000,	 0.016133,	 1.000000,	 1000.000000,	 0.000000,	 300.000000,	 86129.212707,	 347.247603,	 2.879789 
1.065000,	 0.023595,	 1.000000,	 1000.000000,	 0.000000,	 300.000000,	 86129.212707,	 347.247603,	 2.879789 
1.095000,	 0.031058,	 1.000000,	 1000.000000,	 0.000000,	 300.000000,	 86129.212707,	 347.247603,	 2.879789 
1.125000,	 0.038521,	 1.000000,	 1000.000000,	 0.000000,	 300.000000,	 86129.212707,	 347.247603,	 2.879789 
1.155000,	 0.045984,	 1.000000,	 1000.000000,	 0.000000,	 300.000000,	 86129.212707,	 347.247603,	 2.879789 
1.185000,	 0.053447,	 1.000000,	 1000.000000,	 0.000000,	 300.000000,	 86129.212707,	 347.247603,	 2.879789 
1.215000,	 0.060909,	 1.000000,	 1000.000000,	 0.000000,	 300.000000,	 86129.212707,	 347.247603,	 2.879789 
1.245000,	 0.068373,	 1.000000,	 1000.000000,	 0.000000,	 300.000000,	 86129.212707,	 347.247603,	 2.879789 
1.275000,	 0.075836,	 1.000000,	 1000.000000,	 0.000000,	 300.000000,	 86129.212707,	 347.247603,	 2.879789 
1.305000,	 0.083298,	 1.000000,	 1000.000000,	 0.000000,	 300.000000,	 86129.212707,	 347.247603,	 2.879789 
1.335000,	 0.090761,	 1.000000,	 1000.000000,	 0.000000,	 300.000000,	 86129.212707,	 347.247603,	 2.879789 
1.365000,	 0.098224,	 1.000000,	 1000.000000,	 0.000000,	 300.000000,	 86129.212707,	 347.247603,	 2.879789 
1.395000,	 0.105687,	 1.000000,	 1000.000000,	 0.000000,	 300.000000,	 86129.212707,	 347.247603,	 2.879789 
1.425000,	 0.113150,	 1.000000,	 1000.000000,	 0.000000,	 300.000000,	 86129.212707,	 347.247603,	 2.879789 
1.455000,	 0.120613,	 1.000000,	 1000.000000,	 0.000000,	 300.000000,	 86129.212707,	 347.247603,	 2.879789 
1.485000,	 0.128076,	 1.000000,	 1000.000000,	 0.000000,	 300.000000,	 86129.212707,	 347.247603,	 2.879789 
1.515000,	 0.135539,	 1.000000,	 1000.000000,	 0.000000,	 300.000000,	 86129.212707,	 347.247603,	 2.879789 
1.545000,	 0.143001,	 1.000000,	 1000.000000,	 0.000000,	 300.000000,	 86129.212707,	 347.247603,	 2.879789 
1.575000,	 0.150464,	 1.000000,	 1000.000000,	 0.000000,	 300.000000,	 86129.212707,	 347.247603,	 2.879789 
1.605000,	 0.157927,	 1.000000,	 1000.000000,	 0.000000,	 300.000000,	 86129.212707,	 347.247603,	 2.879789 
1.635000,	 0.165390,	 1.000000,	 1000.000000,	 0.000000,	 300.000000,	 86129.212707,	 347.247603,	 2.879789 
1.665000,	 0.172853,	 1.000000,	 1000.000000,	 0.000000,	 300.000000,	 86129.212707,	 347.247603,	 2.879789 
1.695000,	 0.180316,	 1.000000,	 1000.000000,	 0.000000,	 300.000000,	 86129.212707,	 347.247603,	 2.879789 
1.725000,	 0.187779,	 1.000000,	 1000.000000,	 0.000000,	 300.000000,	 86129.212707,	 347.247603,	 2.879789 
1.755000,	 0.195242,	 1.000000,	 1000.000000,	 0.000000,	 300.000000,	 86129.212707,	 347.247603,	 2.879789 
1.785000,	 0.202704,	 1.000000,	 1000.000000,	 0.000000,	 300.000000,	 86129.212707,	 347.247603,	 2.879789 
1.815000,	 0.210167,	 1.000000,	 1000.000000,	 0.000000,	 300.000000,	 86129.212707,	 347.247603,	 2.879789 
1.845000,	 0.217630,	 1.000000,	 1000.000000,	 0.000000,	 300.000000,	 86129.212707,	 347.247603,	 2.879789 
1.875000,	 0.225093,	 1.000000,	 1000.000000,	 0.000000,	 300.000000,	 86129.212707,	 347.247603,	 2.879789 
1.905000,	 0.232556,	 1.000000,	 1000.000000,	 0.000000,	 300.000000,	 86129.212707,	 347.247603,	 2.879789 
1.935000,	 0.240019,	 1.000000,	 1000.000000,	 0.000000,	 300.000000,	 86129.212707,	 347.247603,	 2.879789 
1.965000,	 0.247481,	 1.000000,	 1000.000000,	 0.000000,	 300.000000,	 86129.212707,	 347.247603,	 2.879789 
1.995000,	 0.253701,	 1.000000,	 1000.000000,	 0.000000,	 300.000000,	 86129.212707,	 347.247603,	 2.879789 
2.025000,	 0.256188,	 1.000000,	 1000.000000,	 0.000000,	 300.000000,	 86129.212707,	 347.247603,	 2.879789 
2.055000,	 0.256188,	 1.000000,	 1000.000000,	 0.000000,	 300.000000,	 86129.212707,	 347.247603,	 2.879789 
2.085000,	 0.256188,	 1.000000,	 1000.000000,	 0.000000,	 300.000000,	 86129.212707,	 347.247603,	 2.879789 
2.115000,	 0.256188,	 1.000000,	 1000.000000,	 0.000000,	 300.000000,	 86129.212707,	 347.247603,	 2.879789 
2.145000,	 0.256188,	 1.000000,	 1000.000000,	 0.000000,	 300.000000,	 86129.212707,	 347.247603,	 2.879789 
2.175000,	 0.256188,	 1.000000,	 1000.000000,	 0.000000,	 300.000000,	 86129.212707,	 347.247603,	 2.879789 
2.205000,	 0.256188,	 1.000000,	 1000.000000,	 0.000000,	 300.000000,	 86129.212707,	 347.247603,	 2.879789 
2.235000,	 0.256188,	 1.000000,	 1000.000000,	 0.000000,	 300.000000,	 86129.212707,	 347.247603,	 2.879789 
2.265000,	 0.256188,	 1.000000,	 1000.000000,	 0.000000,	 300.000000,	 86129.212707,	 347.247603,	 2.879789 
2.295000,	 0.256188,	 1.000000,	 1000.000000,	 0.000000,	 300.000000,	 86129.212707,	 347.247603,	 2.879789 
2.325000,	 0.256188,	 1.000000,	 1000.000000,	 0.000000,	 300.000000,	 86129.212707,	 347.247603,	 2.879789 
2.355000,	 0.256188,	 1.000000,	 1000.000000,	 0.000000,	 300.000000,	 86129.212707,	 347.247603,	 2.879789 
2.385000,	 0.256188,	 1.000000,	 1000.000000,	 0.000000,	 300.000000,	 86129.212707,	 347.247603,	 2.879789 
2.415000,	 0.256188,	 1.000000,	 1000.000000,	 0.000000,	 300.000000,	 86129.212707,	 347.247603,	 2.879789 
2.445000,	 0.256188,	 1.000000,	 1000.000000,	 0.000000,	 300.000000,	 86129.212707,	 347.247603,	 2.879789 
2.475000,	 0.256188,	 1.000000,	 1000.000000,	 0.000000,	 300.000000,	 86129.212707,	 347.247603,	 2.879789 
2.505000,	 0.256188,	 1.000000,	 1000.000000,	 0.000000,	 300.000000,	 86129.212707,	 347.247603,	 2.879789 
2.535000,	 0.256188,	 1.000000,	 1000.000000,	 0.000000,	 300.000000,	 86129.212707,	 347.247603,	 2.879789 
2.565000,	 0.256188,	 1.000000,	 1000.000000,	 0.000000,	 300.000000,	 86129.212707,	 347.247603,	 2.879789 
2.595000,	 0.256188,	 1.000000,	 1000.000000,	 0.000000,	 300.000000,	 86129.212707,	 347.247603,	 2.879789 
2.625000,	 0.256188,	 1.000000,	 1000.000000,	 0.000000,	 300.000000,	 86129.212707,	 347.247603,	 2.879789 
2.655000,	 0.256188,	 1.000000,	 1000.000000,	 0.000000,	 300.000000,	 86129.212707,	 347.247603,	 2.879789 
2.685000,	 0.256188,	 1.000000,	 1000.000000,	 0.000000,	 300.000000,	 86129.212707,	 347.247603,	 2.879789 
2.715000,	 0.256188,	 1.000000,	 1000.000000,	 0.000000,	 300.000000,	 86129.212707,	 347.247603,	 2.879789 
2.745000,	 0.256188,	 1.000000,	 1000.000000,	 0.000000,	 300.000000,	 86129.212707,	 347.247603,	 2.879789 
2.775000,	 0.256188,	 1.000000,	 1000.000000,	 0.000000,	 300.000000,	 86129.212707,	 347.247603,	 2.879789 
2.805000,	 0.256188,	 1.000000,	 1000.000000,	 0.000000,	 300.000000,	 86129.212707,	 347.247603,	 2.879789 
2.835000,	 0.256188,	 1.000000,	 1000.000000,	 0.000000,	 300.000000,	 86129.212707,	 347.247603,	 2.879789 
2.865000,	 0.256188,	 1.000000,	 1000.000000,	 0.000000,	 300.000000,	 86129.212707,	 347.247603,	 2.879789 
2.895000,	 0.256188,	 1.000000,	 1000.000000,	 0.000000,	 300.000000,	 86129.212707,	 347.247603,	 2.879789 
2.925000,	 0.256188,	 1.000000,	 1000.000000,	 0.000000,	 300.000000,	 86129.212707,	 347.247603,	 2.879789 
2.955000,	 0.256188,	 1.000000,	 1000.000000,	 0.000000,	 300.000000,	 86129.212707,	 347.247603,	 2.879789 
2.985000,	 0.256188,	 1.000000,	 1000.000000,	 0.000000,	 300.000000,	 86129.212707,	 347.247603,	 2.879789 
0.015000,	 0.022277,	 1.000000,	 1000.000000,	 0.000000,	 300.000000,	 86129.212707,	 347.247603,	 2.879789 
0.045000,	 0.022277,	 1.000000,	 1000.000000,	 0.000000,	 300.000000,	 86129.212707,	 347.247603,	 2.879789 
0.075000,	 0.022277,	 1.000000,	 1000.000000,	 0.000000,	 300.000000,	 86129.212707,	 347.247603,	 2.879789 
0.105000,	 0.022277,	 1.000000,	 1000.000000,	 0.000000,	 300.000000,	 86129.212707,	 347.247603,	 2.879789 
0.135000,	 0.022277,	 1.000000,	 1000.000000,	 0.000000,	 300.000000,	 86129.212707,	 347.247603,	 2.879789 
0.165000,	 0.022277,	 1.000000,	 1000.000000,	 0.000000,	 300.000000,	 86129.212707,	 347.247603,	 2.879789 
0.195000,	 0.022277,	 1.000000,	 1000.000000,	 0.000000,	 300.000000,	 86129.212707,	 347.247603,	 2.879789 
0.225000,	 0.022277,	 1.000000,	 1000.000000,	 0.000000,	 300.000000,	 86129.212707,	 347.247603,	 2.879789 
0.255000,	 0.022277,	 1.000000,	 1000.000000,	 0.000000,	 300.000000,	 86129.212707,	 347.247603,	 2.879789 
0.285000,	 0.022277,	 1.000000,	 1000.000000,	 0.000000,	 300.000000,	 86129.212707,	 347.247603,	 2.879789 
0.315000,	 0.022277,	 1.000000,	 1000.000000,	 0.000000,	 300.000000,	 86129.212707,	 347.247603,	 2.879789 
0.345000,	 0.022277,	 1.000000,	 1000.000000,	 0.000000,	 300.000000,	 86129.212707,	 347.247603,	 2.879789 
0.375000,	 0.022277,	 1.000000,	 1000.000000,	 0.000000,	 300.000000,	 86129.212707,	 347.247603,	 2.879789 
0.405000,	 0.022277,	 1.000000,	 1000.000000,	 0.000000,	 300.000000,	 86129.212707,	 347.247603,	 2.879789 
0.435000,	 0.022277,	 1.000000,	 1000.000000,	 0.000000,	 300.000000,	 86129.212707,	 347.247603,	 2.879789 
0.465000,	 0.022277,	 1.000000,	 1000.000000,	 0.000000,	 300.000000,	 86129.212707,	 347.247603,	 2.879789 
0.495000,	 0.022277,	 1.000000,	 1000.000000,	 0.000000,	 300.000000,	 86129.212707,	 347.247603,	 2.879789 
0.525000,	 0.022277,	 1.000000,	 1000.000000,	 0.000000,	 300.000000,	 86129.212707,	 347.247603,	 2.879789 
0.555000,	 0.022277,	 1.000000,	 1000.000000,	 0.000000,	 300.000000,	 86129.212707,	 347.247603,	 2.879789 
0.585000,	 0.022277,	 1.000000,	 1000.000000,	 0.000000,	 300.000000,	 86129.212707,	 347.247603,	 2.879789 
0.615000,	 0.022277,	 1.000000,	 1000.000000,	 0.000000,	 300.000000,	 86129.212707,	 347.247603,	 2.879789 
0.645000,	 0.022277,	 1.000000,	 1000.000000,	 0.000000,	 300.000000,	 86129.212707,	 347.247603,	 2.879789 
0.675000,	 0.022277,	 1.000000,	 1000.000000,	 0.000000,	 300.000000,	 86129.212707,	 347.247603,	 2.879789 
0.705000,	 0.022277,	 1.000000,	 1000.000000,	 0.000000,	 300.000000,	 86129.212707,	 347.247603,	 2.879789 
0.735000,	 0.022277,	 1.000000,	 1000.000000,	 0.000000,	 300.000000,	 86129.212707,	 347.247603,	 2.879789 
0.765000,	 0.022277,	 1.000000,	 1000.000000,	 0.000000,	 300.000000,	 86129.212707,	 347.247603,	 2.879789 
0.795000,	 0.022277,	 1.000000,	 1000.000000,	 0.000000,	 300.000000,	 86129.212707,	 347.247603,	 2.879789 
0.825000,	 0.022277,	 1.000000,	 1000.000000,	 0.000000,	 300.000000,	 86129.212707,	 347.247603,	 2.879789 
0.855000,	 0.022277,	 1.000000,	 1000.000000,	 0.000000,	 300.000000,	 86129.212707,	 347.247603,	 2.879789 
0.885000,	 0.022277,	 1.000000,	 1000.000000,	 0.000000,	 300.000000,	 86129.212707,	 347.247603,	 2.879789 
0.915000,	 0.022277,	 1.000000,	 1000.000000,	 0.000000,	 300.000000,	 86129.212707,	 347.247603,	 2.879789 
0.945000,	 0.022277,	 1.000000,	 1000.000000,	 0.000000,	 300.000000,	 86129.212707,	 347.247603,	 2.879789 
0.975000,	 0.022277,	 1.000000,	 1000.000000,	 0.000000,	 300.000000,	 86129.212707,	 347.247603,	 2.879789 
1.005000,	 0.024740,	 1.000000,	 1000.000000,	 0.000000,	 300.000000,	 86129.212707,	 347.247603,	 2.879789 
1.035000,	 0.030897,	 1.000000,	 1000.000000,	 0.000000,	 300.000000,	 86129.212707,	 347.247603,	 2.879789 
1.065000,	 0.038286,	 1.000000,	 1000.000000,	 0.000000,	 300.000000,	 86129.212707,	 347.247603,	 2.879789 
1.095000,	 0.045674,	 1.000000,	 1000.000000,	 0.000000,	 300.000000,	 86129.212707,	 347.247603,	 2.879789 
1.125000,	 0.053063,	 1.000000,	 1000.000000,	 0.000000,	 300.000000,	 86129.212707,	 347.247603,	 2.879789 
1.155000,	 0.060452,	 1.000000,	 1000.000000,	 0.000000,	 300.000000,	 86129.212707,	 347.247603,	 2.879789 
1.185000,	 0.067840,	 1.000000,	 1000.000000,	 0.000000,	 300.000000,	 86129.212707,	 347.247603,	 2.879789 
1.215000,	 0.075229,	 1.000000,	 1000.000000,	 0.000000,	 300.000000,	 86129.212707,	 347.247603,	 2.879789 
1.245000,	 0.082617,	 1.000000,	 1000.000000,	 0.000000,	 300.000000,	 86129.212707,	 347.247603,	 2.879789 
1.275000,	 0.090006,	 1.000000,	 1000.000000,	 0.000000,	 300.000000,	 86129.212707,	 347.247603,	 2.879789 
1.305000,	 0.097395,	 1.000000,	 1000.000000,	 0.000000,	 300.000000,	 86129.212707,	 347.247603,	 2.879789 
1.335000,	 0.104783,	 1.000000,	 1000.000000,	 0.000000,	 300.000000,	 86129.212707,	 347.247603,	 2.879789 
1.365000,	 0.112172,	 1.000000,	 1000.000000,	 0.000000,	 300.000000,	 86129.212707,	 347.247603,	 2.879789 
1.395000,	 0.119561,	 1.000000,	 1000.000000,	 0.000000,	 300.000000,	 86129.212707,	 347.247603,	 2.879789 
1.425000,	 0.126949,	 1.000000,	 1000.000000,	 0.000000,	 300.000000,	 86129.212707,	 347.247603,	 2.879789 
1.455000,	 0.134338,	 1.000000,	 1000.000000,	 0.000000,	 300.000000,	 86129.212707,	 347.247603,	 2.879789 
1.485000,	 0.141727,	 1.000000,	 1000.000000,	 0.000000,	 300.000000,	 86129.212707,	 347.247603,	 2.879789 
1.515000,	 0.149115,	 1.000000,	 1000.000000,	 0.000000,	 300.000000,	 86129.212707,	 347.247603,	 2.879789 
1.545000,	 0.156504,	 1.000000,	 1000.000000,	 0.000000,	 300.000000,	 86129.212707,	 347.247603,	 2.879789 
1.575000,	 0.163892,	 1.000000,	 1000.000000,	 0.000000,	 300.000000,	 86129.212707,	 347.247603,	 2.879789 
1.605000,	 0.171281,	 1.000000,	 1000.000000,	 0.000000,	 300.000000,	 86129.212707,	 347.247603,	 2.879789 
1.635000,	 0.178670,	 1.000000,	 1000.000000,	 0.000000,	 300.000000,	 86129.212707,	 347.247603,	 2.879789 
1.665000,	 0.186058,	 1.000000,	 1000.000000,	 0.000000,	 300.000000,	 86129.212707,	 347.247603,	 2.879789 
1.695000,	 0.193447,	 1.000000,	 1000.000000,	 0.000000,	 300.000000,	 86129.212707,	 347.247603,	 2.879789 
1.725000,	 0.200836,	 1.000000,	 1000.000000,	 0.000000,	 300.000000,	 86129.212707,	 347.247603,	 2.879789 
1.755000,	 0.208224,	 1.000000,	 1000.000000,	 0.000000,	 300.000000,	 86129.212707,	 347.247603,	 2.879789 
1.785000,	 0.215613,	 1.000000,	 1000.000000,	 0.000000,	 300.000000,	 86129.212707,	 347.247603,	 2.879789 
1.815000,	 0.223001,	 1.000000,	 1000.000000,	 0.000000,	 300.000000,	 86129.212707,	 347.247603,	 2.879789 
1.845000,	 0.230390,	 1.000000,	 1000.000000,	 0.000000,	 300.000000,	 86129.212707,	 347.247603,	 2.879789 
1.875000,	 0.237779,	 1.000000,	 1000.000000,	 0.000000,	 300.000000,	 86129.212707,	 347.247603,	 2.879789 
1.905000,	 0.245167,	 1.000000,	 1000.000000,	 0.000000,	 300.000000,	 86129.212707,	 347.247603,	 2.879789 
1.935000,	 0.252556,	 1.000000,	 1000.000000,	 0.000000,	 300.000000,	 86129.212707,	 347.247603,	 2.879789 
1.965000,	 0.259944,	 1.000000,	 1000.000000,	 0.000000,	 300.000000,	 86129.212707,	 347.247603,	 2.879789 
1.995000,	 0.266101,	 1.000000,	 1000.000000,	 0.000000,	 300.000000,	 86129.212707,	 347.247603,	 2.879789 
2.025000,	 0.268564,	 1.000000,	 1000.000000,	 0.000000,	 300.000000,	 86129.212707,	 347.247603,	 2.879789 
2.055000,	 0.268564,	 1.000000,	 1000.000000,	 0.000000,	 300.000000,	 86129.212707,	 347.247603,	 2.879789 
2.085000,	 0.268564,	 1.000000,	 1000.000000,	 0.000000,	 300.000000,	 86129.212707,	 347.247603,	 2.879789 
2.115000,	 0.268564,	 1.000000,	 1000.000000,	 0.000000,	 300.000000,	 86129.212707,	 347.247603,	 2.879789 
2.145000,	 0.268564,	 1.000000,	 1000.000000,	 0.000000,	 300.000000,	 86129.212707,	 347.247603,	 2.879789 
2.175000,	 0.268564,	 1.000000,	 1000.000000,	 0.000000,	 300.000000,	 86129.212707,	 347.247603,	 2.879789 
2.205000,	 0.268564,	 1.000000,	 1000.000000,	 0.000000,	 300.000000,	 86129.212707,	 347.247603,	 2.879789 
2.235000,	 0.268564,	 1.000000,	 1000.000000,	 0.000000,	 300.000000,	 86129.212707,	 347.247603,	 2.879789 
2.265000,	 0.268564,	 1.000000,	 1000.000000,	 0.000000,	 300.000000,	 86129.212707,	 347.247603,	 2.879789 
2.295000,	 0.268564,	 1.000000,	 1000.000000,	 0.000000,	 300.000000,	 86129.212707,	 347.247603,	 2.879789 
2.325000,	 0.268564,	 1.000000,	 1000.000000,	 0.000000,	 300.000000,	 86129.212707,	 347.247603,	 2.879789 
2.355000,	 0.268564,	 1.000000,	 1000.000000,	 0.000000,	 300.000000,	 86129.212707,	 347.247603,	 2.879789 
2.385000,	 0.268564,	 1.000000,	 1000.000000,	 0.000000,	 300.000000,	 86129.212707,	 347.247603,	 2.879789 
2.415000,	 0.268564,	 1.000000,	 1000.000000,	 0.000000,	 300.000000,	 86129.212707,	 347.247603,	 2.879789 
2.445000,	 0.268564,	 1.000000,	 1000.000000,	 0.000000,	 300.000000,	 86129.212707,	 347.247603,	 2.879789 
2.475000,	 0.268564,	 1.000000,	 1000.000000,	 0.000000,	 300.000000,	 86129.212707,	 347.247603,	 2.879789 
2.505000,	 0.268564,	 1.000000,	 1000.000000,	 0.000000,	 300.000000,	 86129.212707,	 347.247603,	 2.879789 
2.535000,	 0.268564,	 1.000000,	 1000.000000,	 0.000000,	 300.000000,	 86129.212707,	 347.247603,	 2.879789 
2.565000,	 0.268564,	 1.000000,	 1000.000000,	 0.000000,	 300.000000,	 86129.212707,	 347.247603,	 2.879789 
2.595000,	 0.268564,	 1.000000,	 1000.000000,	 0.000000,	 300.000000,	 86129.212707,	 347.247603,	 2.879789 
2.625000,	 0.268564,	 1.000000,	 1000.000000,	 0.000000,	 300.000000,	 86129.212707,	 347.247603,	 2.879789 
2.655000,	 0.268564,	 1.000000,	 1000.000000,	 0.000000,	 300.000000,	 86129.212707,	 347.247603,	 2.879789 
2.685000,	 0.268564,	 1.000000,	 1000.000000,	 0.000000,	 300.000000,	 86129.212707,	 347.247603,	 2.879789 
2.715000,	 0.268564,	 1.000000,	 1000.000000,	 0.000000,	 300.000000,	 86129.212707,	 347.247603,	 2.879789 
2.745000,	 0.268564,	 1.000000,	 1000.000000,	 0.000000,	 300.000000,	 86129.212707,	 347.247603,	 2.879789 
2.775000,	 0.268564,	 1.000000,	 1000.000000,	 0.000000,	 300.000000,	 86129.212707,	 347.247603,	 2.879789 
2.805000,	 0.268564,	 1.000000,	 1000.000000,	 0.000000,	 300.000000,	 86129.212707,	 347.247603,	 2.879789 
2.835000,	 0.268564,	 1.000000,	 1000.000000,	 0.000000,	 300.000000,	 86129.212707,	 347.247603,	 2.879789 
2.865000,	 0.268564,	 1.000000,	 1000.000000,	 0.000000,	 300.000000,	 86129.212707,	 347.247603,	 2.879789 
2.895000,	 0.268564,	 1.000000,	 1000.000000,	 0.000000,	 300.000000,	 86129.212707,	 347.247603,	 2.879789 
2.925000,	 0.268564,	 1.000000,	 1000.000000,	 0.000000,	 300.000000,	 86129.212707,	 347.247603,	 2.879789 
2.955000,	 0.268564,	 1.000000,	 1000.000000,	 0.000000,	 300.000000,	 86129.212707,	 347.247603,	 2.879789 
2.985000,	 0.268564,	 1.000000,	 1000.000000,	 0.000000,	 300.000000,	 86129.212707,	 347.247603,	 2.879789 
0.015000,	 0.037129,	 1.000000,	 1000.000000,	 0.000000,	 300.000000,	 86129.212707,	 347.247603,	 2.879789 
0.045000,	 0.037129,	 1.000000,	 1000.000000,	 0.000000,	 300.000000,	 86129.212707,	 347.247603,	 2.879789 
0.075000,	 0.037129,	 1.000000,	 1000.000000,	 0.000000,	 300.000000,	 86129.212707,	 347.247603,	 2.879789 
0.105000,	 0.037129,	 1.000000,	 1000.000000,	 0.000000,	 300.000000,	 86129.212707,	 347.247603,	 2.879789 
0.135000,	 0.037129,	 1.000000,	 1000.000000,	 0.000000,	 300.000000,	 86129.212707,	 347.247603,	 2.879789 
0.165000,	 0.037129,	 1.000000,	 1000.000000,	 0.000000,	 300.000000,	 86129.212707,	 347.247603,	 2.879789 
0.195000,	 0.037129,	 1.000000,	 1000.000000,	 0.000000,	 300.000000,	 86129.212707,	 347.247603,	 2.879789 
0.225000,	 0.037129,	 1.000000,	 1000.000000,	 0.000000,	 300.000000,	 86129.212707,	 347.247603,	 2.879789 
0.255000,	 0.037129,	 1.000000,	 1000.000000,	 0.000000,	 300.000000,	 86129.212707,	 347.247603,	 2.879789 
0.285000,	 0.037129,	 1.000000,	 1000.000000,	 0.000000,	 300.000000,	 86129.212707,	 347.247603,	 2.879789 
0.315000,	 0.037129,	 1.000000,	 1000.000000,	 0.000000,	 300.000000,	 86129.212707,	 347.247603,	 2.879789 
0.345000,	 0.037129,	 1.000000,	 1000.000000,	 0.000000,	 300.000000,	 86129.212707,	 347.247603,	 2.879789 
0.375000,	 0.037129,	 1.000000,	 1000.000000,	 0.000000,	 300.000000,	 86129.212707,	 347.247603,	 2.879789 
0.405000,	 0.037129,	 1.000000,	 1000.000000,	 0.000000,	 300.000000,	 86129.212707,	 347.247603,	 2.879789 
0.435000,	 0.037129,	 1.000000,	 1000.000000,	 0.000000,	 300.000000,	 86129.212707,	 347.247603,	 2.879789 
0.465000,	 0.037129,	 1.000000,	 1000.000000,	 0.000000,	 300.000000,	 86129.212707,	 347.247603,	 2.879789 
0.495000,	 0.037129,	 1.000000,	 1000.000000,	 0.000000,	 300.000000,	 86129.212707,	 347.247603,	 2.879789 
0.525000,	 0.037129,	 1.000000,	 1000.000000,	 0.000000,	 300.000000,	 86129.212707,	 347.247603,	 2.879789 
0.555000,	 0.037129,	 1.000000,	 1000.000000,	 0.000000,	 300.000000,	 86129.212707,	 347.247603,	 2.879789 
0.585000,	 0.037129,	 1.000000,	 1000.000000,	 0.000000,	 300.000000,	 86129.212707,	 347.247603,	 2.879789 
0.615000,	 0.037129,	 1.000000,	 1000.000000,	 0.000000,	 300.000000,	 86129.212707,	 347.247603,	 2.879789 
0.645000,	 0.037129,	 1.000000,	 1000.000000,	 0.000000,	 300.000000,	 86129.212707,	 347.247603,	 2.879789 
0.675000,	 0.037129,	 1.000000,	 1000.000000,	 0.000000,	 300.000000,	 86129.212707,	 347.247603,	 2.879789 
0.705000,	 0.037129,	 1.000000,	 1000.000000,	 0.000000,	 300.000000,	 86129.212707,	 347.247603,	 2.879789 
0.735000,	 0.037129,	 1.000000,	 1000.000000,	 0.000000,	 300.000000,	 86129.212707,	 347.247603,	 2.879789 
0.765000,	 0.037129,	 1.000000,	 1000.000000,	 0.000000,	 300.000000,	 86129.212707,	 347.247603,	 2.879789 
0.795000,	 0.037129,	 1.000000,	 1000.000000,	 0.000000,	 300.000000,	 86129.212707,	 347.247603,	 2.879789 
0.825000,	 0.037129,	 1.000000,	 1000.000000,	 0.000000,	 300.000000,	 86129.212707,	 347.247603,	 2.879789 
0.855000,	 0.037129,	 1.000000,	 1000.000000,	 0.000000,	 300.000000,	 86129.212707,	 347.247603,	 2.879789 
0.885000,	 0.037129,	 1.000000,	 1000.000000,	 0.000000,	 300.000000,	 86129.212707,	 347.247603,	 2.879789 
0.915000,	 0.037129,	 1.000000,	 1000.000000,	 0.000000,	 300.000000,	 86129.212707,	 347.247603,	 2.879789 
0.945000,	 0.037129,	 1.000000,	 1000.000000,	 0.000000,	 300.000000,	 86129.212707,	 347.247603,	 2.879789 
0.975000,	 0.037129,	 1.000000,	 1000.000000,	 0.000000,	 300.000000,	 86129.212707,	 347.247603,	 2.879789 
1.005000,	 0.039567,	 1.000000,	 1000.000000,	 0.000000,	 300.000000,	 86129.212707,	 347.247603,	 2.879789 
1.035000,	 0.045662,	 1.000000,	 1000.000000,	 0.000000,	 300.000000,	 86129.212707,	 347.247603,	 2.879789 
1.065000,	 0.052976,	 1.000000,	 1000.000000,	 0.000000,	 300.000000,	 86129.212707,	 347.247603,	 2.879789 
1.095000,	 0.060291,	 1.000000,	 1000.000000,	 0.000000,	 300.000000,	 86129.212707,	 347.247603,	 2.879789 
1.125000,	 0.067605,	 1.000000,	 1000.000000,	 0.000000,	 300.000000,	 86129.212707,	 347.247603,	 2.879789 
1.155000,	 0.074920,	 1.000000,	 1000.000000,	 0.000000,	 300.000000,	 86129.212707,	 347.247603,	 2.879789 
1.185000,	 0.082234,	 1.000000,	 1000.000000,	 0.000000,	 300.000000,	 86129.212707,	 347.247603,	 2.879789 
1.215000,	 0.089548,	 1.000000,	 1000.000000,	 0.000000,	 300.000000,	 86129.212707,	 347.247603,	 2.879789 
1.245000,	 0.096863,	 1.000000,	 1000.000000,	 0.000000,	 300.000000,	 86129.212707,	 347.247603,	 2.879789 
1.275000,	 0.104177,	 1.000000,	 1000.000000,	 0.000000,	 300.000000,	 86129.212707,	 347.247603,	 2.879789 
1.305000,	 0.111491,	 1.000000,	 1000.000000,	 0.000000,	 300.000000,	 86129.212707,	 347.247603,	 2.879789 
1.335000,	 0.118805,	 1.000000,	 1000.000000,	 0.000000,	 300.000000,	 86129.212707,	 347.247603,	 2.879789 
1.365000,	 0.126120,	 1.000000,	 1000.000000,	 0.000000,	 300.000000,	 86129.212707,	 347.247603,	 2.879789 
1.395000,	 0.133435,	 1.000000,	 1000.000000,	 0.000000,	 300.000000,	 86129.212707,	 347.247603,	 2.879789 
1.425000,	 0.140749,	 1.000000,	 1000.000000,	 0.000000,	 300.000000,	 86129.212707,	 347.247603,	 2.879789 
1.455000,	 0.148063,	 1.000000,	 1000.000000,	 0.000000,	 300.000000,	 86129.212707,	 347.247603,	 2.879789 
1.485000,	 0.155378,	 1.000000,	 1000.000000,	 0.000000,	 300.000000,	 86129.212707,	 347.247603,	 2.879789 
1.515000,	 0.162692,	 1.000000,	 1000.000000,	 0.000000,	 300.000000,	 86129.212707,	 347.247603,	 2.879789 
1.545000,	 0.170006,	 1.000000,	 1000.000000,	 0.000000,	 300.000000,	 86129.212707,	 347.247603,	 2.879789 
1.575000,	 0.177320,	 1.000000,	 1000.000000,	 0.000000,	 300.000000,	 86129.212707,	 347.247603,	 2.879789 
1.605000,	 0.184635,	 1.000000,	 1000.000000,	 0.000000,	 300.000000,	 86129.212707,	 347.247603,	 2.879789 
1.635000,	 0.191949,	 1.000000,	 1000.000000,	 0.000000,	 300.000000,	 86129.212707,	 347.247603,	 2.879789 
1.665000,	 0.199264,	 1.000000,	 1000.000000,	 0.000000,	 300.000000,	 86129.212707,	 347.247603,	 2.879789 
1.695000,	 0.206578,	 1.000000,	 1000.000000,	 0.000000,	 300.000000,	 86129.212707,	 347.247603,	 2.879789 
1.725000,	 0.213892,	 1.000000,	 1000.000000,	 0.000000,	 300.000000,	 86129.212707,	 347.247603,	 2.879789 
1.755000,	 0.221207,	 1.000000,	 1000.000000,	 0.000000,	 300.000000,	 86129.212707,	 347.247603,	 2.879789 
1.785000,	 0.228521,	 1.000000,	 1000.000000,	 0.000000,	 300.000000,	 86129.212707,	 347.247603,	 2.879789 
1.815000,	 0.235836,	 1.000000,	 1000.000000,	 0.000000,	 300.000000,	 86129.212707,	 347.247603,	 2.879789 
1.845000,	 0.243150,	 1.000000,	 1000.000000,	 0.000000,	 300.000000,	 86129.212707,	 347.247603,	 2.879789 
1.875000,	 0.250464,	 1.000000,	 1000.000000,	 0.000000,	 300.000000,	 86129.212707,	 347.247603,	 2.879789 
1.905000,	 0.257779,	 1.000000,	 1000.000000,	 0.000000,	 300.000000,	 86129.212707,	 347.247603,	 2.879789 
1.935000,	 0.265093,	 1.000000,	 1000.000000,	 0.000000,	 300.000000,	 86129.212707,	 347.247603,	 2.879789 
1.965000,	 0.272407,	 1.000000,	 1000.000000,	 0.000000,	 300.000000,	 86129.212707,	 347.247603,	 2.879789 
1.995000,	 0.278502,	 1.000000,	 1000.000000,	 0.000000,	 300.000000,	 86129.212707,	 347.247603,	 2.879789 
2.025000,	 0.280941,	 1.000000,	 1000.000000,	 0.000000,	 300.000000,	 86129.212707,	 347.247603,	 2.879789 
2.055000,	 0.280941,	 1.000000,	 1000.000000,	 0.000000,	 300.000000,	 86129.212707,	 347.247603,	 2.879789 
2.085000,	 0.280941,	 1.000000,	 1000.000000,	 0.000000,	 300.000000,	 86129.212707,	 347.247603,	 2.879789 
2.115000,	 0.280941,	 1.000000,	 1000.000000,	 0.000000,	 300.000000,	 86129.212707,	 347.247603,	 2.879789 
2.145000,	 0.280941,	 1.000000,	 1000.000000,	 0.000000,	 300.000000,	 86129.212707,	 347.247603,	 2.879789 
2.175000,	 0.280941,	 1.000000,	 1000.000000,	 0.000000,	 300.000000,	 86129.212707,	 347.247603,	 2.879789 
2.205000,	 0.280941,	 1.000000,	 1000.000000,	 0.000000,	 300.000000,	 86129.212707,	 347.247603,	 2.879789 