TITLE = "MeshVolumeStats"
VARIABLES = "X", "Y", "VOL"
ZONE I=100, J=400, DATAPACKING=POINT
0.012500,	0.009254,	0.000000
0.037500,	0.027754,	0.000000
0.062500,	0.046254,	0.000000
0.087500,	0.064753,	0.000000
0.112500,	0.083253,	0.000000
0.137500,	0.101753,	0.000000
0.162500,	0.120253,	0.000000
0.187500,	0.138754,	0.000000
0.212500,	0.157253,	0.000000
0.237500,	0.175754,	0.000000
0.262500,	0.194253,	0.000000
0.287500,	0.212753,	0.000000
0.312500,	0.231253,	0.000000
0.337500,	0.249753,	0.000000
0.362500,	0.268253,	0.000000
0.387500,	0.286753,	0.000000
0.412500,	0.305253,	0.000000
0.437500,	0.323753,	0.000000
0.462500,	0.342253,	0.000000
0.487500,	0.360753,	0.000000
0.512500,	0.379253,	0.000000
0.537500,	0.397752,	0.000000
0.562500,	0.416253,	0.000000
0.587500,	0.434752,	0.000000
0.612500,	0.453253,	0.000000
0.637500,	0.471752,	0.000000
0.662500,	0.490252,	0.000000
0.687500,	0.508753,	0.000000
0.712500,	0.527252,	0.000000
0.737500,	0.545752,	0.000000
0.762500,	0.552627,	0.000000
0.787500,	0.547877,	0.000000
0.812500,	0.543127,	0.000000
0.837500,	0.538377,	0.000000
0.862500,	0.533627,	0.000000
0.887500,	0.528878,	0.000000
0.912500,	0.524127,	0.000000
0.937500,	0.519378,	0.000000
0.962500,	0.514628,	0.000000
0.987500,	0.509877,	0.000000
1.012500,	0.505128,	0.000000
1.037500,	0.500378,	0.000000
1.062500,	0.495627,	0.000000
1.087500,	0.490878,	0.000000
1.112500,	0.486127,	0.000000
1.137500,	0.481378,	0.000000
1.162500,	0.476627,	0.000000
1.187500,	0.471877,	0.000000
1.212500,	0.467128,	0.000000
1.237500,	0.462377,	0.000000
1.262500,	0.457628,	0.000000
1.287500,	0.452877,	0.000000
1.312500,	0.448127,	0.000000
1.337500,	0.443377,	0.000000
1.362500,	0.438628,	0.000000
1.387500,	0.433878,	0.000000
1.412500,	0.429127,	0.000000
1.437500,	0.424378,	0.000000
1.462500,	0.419627,	0.000000
1.487500,	0.414878,	0.000000
1.512500,	0.410127,	0.000000
1.537500,	0.405378,	0.000000
1.562500,	0.400628,	0.000000
1.587500,	0.395877,	0.000000
1.612500,	0.391128,	0.000000
1.637500,	0.386377,	0.000000
1.662500,	0.381627,	0.000000
1.687500,	0.376877,	0.000000
1.712500,	0.372128,	0.000000
1.737500,	0.367378,	0.000000
1.762500,	0.362628,	0.000000
1.787500,	0.357878,	0.000000
1.812500,	0.353128,	0.000000
1.837500,	0.348378,	0.000000
1.862500,	0.343628,	0.000000
1.887500,	0.338878,	0.000000
1.912500,	0.334128,	0.000000
1.937500,	0.329378,	0.000000
1.962500,	0.324628,	0.000000
1.987500,	0.319878,	0.000000
2.012500,	0.315128,	0.000000
2.037500,	0.310378,	0.000000
2.062500,	0.305628,	0.000000
2.087500,	0.300878,	0.000000
2.112500,	0.296128,	0.000000
2.137500,	0.291378,	0.000000
2.162500,	0.286628,	0.000000
2.187500,	0.281878,	0.000000
2.212500,	0.277128,	0.000000
2.237500,	0.272378,	0.000000
2.262500,	0.267628,	0.000000
2.287500,	0.262878,	0.000000
2.312500,	0.258128,	0.000000
2.337500,	0.253378,	0.000000
2.362500,	0.248628,	0.000000
2.387500,	0.243878,	0.000000
2.412500,	0.239128,	0.000000
2.437500,	0.234378,	0.000000
2.462500,	0.229628,	0.000000
2.487500,	0.224878,	0.000000
0.012500,	0.009269,	0.000001
0.037500,	0.027769,	0.000001
0.062500,	0.046269,	0.000001
0.087500,	0.064768,	0.000001
0.112500,	0.083268,	0.000001
0.137500,	0.101768,	0.000001
0.162500,	0.120268,	0.000001
0.187500,	0.138768,	0.000001
0.212500,	0.157267,	0.000001
0.237500,	0.175767,	0.000001
0.262500,	0.194267,	0.000000
0.287500,	0.212766,	0.000000
0.312500,	0.231266,	0.000000
0.337500,	0.249766,	0.000000
0.362500,	0.268265,	0.000000
0.387500,	0.286765,	0.000000
0.412500,	0.305265,	0.000000
0.437500,	0.323765,	0.000000
0.462500,	0.342265,	0.000000
0.487500,	0.360764,	0.000000
0.512500,	0.379264,	0.000000
0.537500,	0.397763,	0.000000
0.562500,	0.416263,	0.000000
0.587500,	0.434763,	0.000000
0.612500,	0.453263,	0.000000
0.637500,	0.471762,	0.000000
0.662500,	0.490262,	0.000000
0.687500,	0.508762,	0.000000
0.712500,	0.527261,	0.000000
0.737500,	0.545761,	0.000000
0.762500,	0.552636,	0.000000
0.787500,	0.547886,	0.000000
0.812500,	0.543136,	0.000000
0.837500,	0.538386,	0.000000
0.862500,	0.533636,	0.000000
0.887500,	0.528887,	0.000000
0.912500,	0.524137,	0.000000
0.937500,	0.519386,	0.000000
0.962500,	0.514637,	0.000000
0.987500,	0.509887,	0.000000
1.012500,	0.505137,	0.000000
1.037500,	0.500387,	0.000000
1.062500,	0.495637,	0.000000
1.087500,	0.490887,	0.000000
1.112500,	0.486137,	0.000000
1.137500,	0.481387,	0.000000
1.162500,	0.476637,	0.000000
1.187500,	0.471887,	0.000000
1.212500,	0.467137,	0.000000
1.237500,	0.462388,	0.000000
1.262500,	0.457638,	0.000000
1.287500,	0.452887,	0.000000
1.312500,	0.448138,	0.000000
1.337500,	0.443387,	0.000000
1.362500,	0.438637,	0.000000
1.387500,	0.433888,	0.000000
1.412500,	0.429138,	0.000000
1.437500,	0.424388,	0.000000
1.462500,	0.419638,	0.000000
1.487500,	0.414888,	0.000000
1.512500,	0.410138,	0.000000
1.537500,	0.405388,	0.000000
1.562500,	0.400638,	0.000000
1.587500,	0.395888,	0.000000
1.612500,	0.391138,	0.000000
1.637500,	0.386389,	0.000000
1.662500,	0.381638,	0.000000
1.687500,	0.376889,	0.000000
1.712500,	0.372139,	0.000000
1.737500,	0.367389,	0.000000
1.762500,	0.362639,	0.000000
1.787500,	0.357889,	0.000000
1.812500,	0.353139,	0.000000
1.837500,	0.348390,	0.000000
1.862500,	0.343639,	0.000000
1.887500,	0.338890,	0.000000
1.912500,	0.334140,	0.000000
1.937500,	0.329390,	0.000000
1.962500,	0.324640,	0.000000
1.987500,	0.319889,	0.000000
2.012500,	0.315140,	0.000000
2.037500,	0.310390,	0.000000
2.062500,	0.305640,	0.000000
2.087500,	0.300890,	0.000000
2.112500,	0.296140,	0.000000
2.137500,	0.291390,	0.000000
2.162500,	0.286640,	0.000000
2.187500,	0.281890,	0.000000
2.212500,	0.277140,	0.000000
2.237500,	0.272390,	0.000000
2.262500,	0.267641,	0.000000
2.287500,	0.262891,	0.000000
2.312500,	0.258140,	0.000000
2.337500,	0.253390,	0.000000
2.362500,	0.248640,	0.000000
2.387500,	0.243891,	0.000000
2.412500,	0.239140,	0.000000
2.437500,	0.234391,	0.000000
2.462500,	0.229641,	0.000000
2.487500,	0.224891,	0.000001
0.012500,	0.009300,	0.000001
0.037500,	0.027799,	0.000001
0.062500,	0.046299,	0.000001
0.087500,	0.064798,	0.000001
0.112500,	0.083297,	0.000001
0.137500,	0.101797,	0.000001
0.162500,	0.120296,	0.000001
0.187500,	0.138795,	0.000001
0.212500,	0.157295,	0.000001
0.237500,	0.175794,	0.000001
0.262500,	0.194293,	0.000001
0.287500,	0.212792,	0.000001
0.312500,	0.231291,	0.000001
0.337500,	0.249791,	0.000001
0.362500,	0.268290,	0.000001
0.387500,	0.286789,	0.000001
0.412500,	0.305289,	0.000001
0.437500,	0.323788,	0.000001
0.462500,	0.342287,	0.000001
0.487500,	0.360786,	0.000001
0.512500,	0.379286,	0.000001
0.537500,	0.397785,	0.000001
0.562500,	0.416284,	0.000001
0.587500,	0.434783,	0.000001
0.612500,	0.453282,	0.000001
0.637500,	0.471782,	0.000001
0.662500,	0.490281,	0.000001
0.687500,	0.508780,	0.000001
0.712500,	0.527279,	0.000001
0.737500,	0.545778,	0.000001
0.762500,	0.552653,	0.000001
0.787500,	0.547904,	0.000001
0.812500,	0.543154,	0.000001
0.837500,	0.538404,	0.000001
0.862500,	0.533654,	0.000001
0.887500,	0.528904,	0.000001
0.912500,	0.524154,	0.000001
0.937500,	0.519404,	0.000001
0.962500,	0.514655,	0.000001
0.987500,	0.509906,	0.000001
1.012500,	0.505155,	0.000001
1.037500,	0.500405,	0.000001
1.062500,	0.495656,	0.000001
1.087500,	0.490906,	0.000001
1.112500,	0.486156,	0.000001
1.137500,	0.481406,	0.000001
1.162500,	0.476656,	0.000001
1.187500,	0.471907,	0.000001
1.212500,	0.467157,	0.000001
1.237500,	0.462407,	0.000001
1.262500,	0.457657,	0.000001
1.287500,	0.452908,	0.000001
1.312500,	0.448157,	0.000001
1.337500,	0.443408,	0.000001
1.362500,	0.438658,	0.000001
1.387500,	0.433908,	0.000001
1.412500,	0.429158,	0.000001
1.437500,	0.424409,	0.000001
1.462500,	0.419659,	0.000001
1.487500,	0.414909,	0.000001
1.512500,	0.410159,	0.000001
1.537500,	0.405409,	0.000001
1.562500,	0.400660,	0.000001
1.587500,	0.395910,	0.000001
1.612500,	0.391160,	0.000001
1.637500,	0.386410,	0.000001
1.662500,	0.381660,	0.000001
1.687500,	0.376911,	0.000001
1.712500,	0.372161,	0.000001
1.737500,	0.367411,	0.000001
1.762500,	0.362661,	0.000001
1.787500,	0.357911,	0.000001
1.812500,	0.353162,	0.000001
1.837500,	0.348412,	0.000001
1.862500,	0.343662,	0.000001
1.887500,	0.338912,	0.000001
1.912500,	0.334162,	0.000001
1.937500,	0.329412,	0.000001
1.962500,	0.324662,	0.000001
1.987500,	0.319913,	0.000001
2.012500,	0.315163,	0.000001
2.037500,	0.310413,	0.000001
2.062500,	0.305663,	0.000001
2.087500,	0.300914,	0.000001
2.112500,	0.296164,	0.000001
2.137500,	0.291414,	0.000001
2.162500,	0.286664,	0.000001
2.187500,	0.281914,	0.000001
2.212500,	0.277164,	0.000001
2.237500,	0.272415,	0.000001
2.262500,	0.267665,	0.000001
2.287500,	0.262916,	0.000001
2.312500,	0.258165,	0.000001
2.337500,	0.253415,	0.000001
2.362500,	0.248666,	0.000001
2.387500,	0.243916,	0.000001
2.412500,	0.239166,	0.000001
2.437500,	0.234416,	0.000001
2.462500,	0.229667,	0.000001
2.487500,	0.224917,	0.000001
0.012500,	0.009347,	0.000001
0.037500,	0.027845,	0.000001
0.062500,	0.046344,	0.000001
0.087500,	0.064843,	0.000001
0.112500,	0.083341,	0.000001
0.137500,	0.101840,	0.000001
0.162500,	0.120338,	0.000001
0.187500,	0.138837,	0.000001
0.212500,	0.157335,	0.000001
0.237500,	0.175834,	0.000001
0.262500,	0.194333,	0.000001
0.287500,	0.212831,	0.000001
0.312500,	0.231330,	0.000001
0.337500,	0.249828,	0.000001
0.362500,	0.268327,	0.000001
0.387500,	0.286826,	0.000001
0.412500,	0.305324,	0.000001
0.437500,	0.323823,	0.000001
0.462500,	0.342321,	0.000001
0.487500,	0.360820,	0.000001
0.512500,	0.379318,	0.000001
0.537500,	0.397817,	0.000001
0.562500,	0.416316,	0.000001
0.587500,	0.434814,	0.000001
0.612500,	0.453313,	0.000001
0.637500,	0.471811,	0.000001
0.662500,	0.490309,	0.000001
0.687500,	0.508808,	0.000001
0.712500,	0.527307,	0.000001
0.737500,	0.545805,	0.000001
0.762500,	0.552680,	0.000001
0.787500,	0.547930,	0.000001
0.812500,	0.543181,	0.000001
0.837500,	0.538431,	0.000001
0.862500,	0.533681,	0.000001
0.887500,	0.528932,	0.000001
0.912500,	0.524182,	0.000001
0.937500,	0.519432,	0.000001
0.962500,	0.514683,	0.000001
0.987500,	0.509933,	0.000001
1.012500,	0.505184,	0.000001
1.037500,	0.500434,	0.000001
1.062500,	0.495684,	0.000001
1.087500,	0.490934,	0.000001
1.112500,	0.486185,	0.000001
1.137500,	0.481435,	0.000001
1.162500,	0.476686,	0.000001
1.187500,	0.471936,	0.000001
1.212500,	0.467186,	0.000001
1.237500,	0.462437,	0.000001
1.262500,	0.457687,	0.000001
1.287500,	0.452937,	0.000001
1.312500,	0.448188,	0.000001
1.337500,	0.443438,	0.000001
1.362500,	0.438689,	0.000001
1.387500,	0.433939,	0.000001
1.412500,	0.429189,	0.000001
1.437500,	0.424440,	0.000001
1.462500,	0.419690,	0.000001
1.487500,	0.414941,	0.000001
1.512500,	0.410191,	0.000001
1.537500,	0.405442,	0.000001
1.562500,	0.400691,	0.000001
1.587500,	0.395942,	0.000001
1.612500,	0.391192,	0.000001
1.637500,	0.386443,	0.000001
1.662500,	0.381693,	0.000001
1.687500,	0.376943,	0.000001
1.712500,	0.372194,	0.000001
1.737500,	0.367444,	0.000001
1.762500,	0.362694,	0.000001
1.787500,	0.357945,	0.000001
1.812500,	0.353195,	0.000001
1.837500,	0.348446,	0.000001
1.862500,	0.343696,	0.000001
1.887500,	0.338947,	0.000001
1.912500,	0.334197,	0.000001
1.937500,	0.329447,	0.000001
1.962500,	0.324698,	0.000001
1.987500,	0.319948,	0.000001
2.012500,	0.315198,	0.000001
2.037500,	0.310449,	0.000001
2.062500,	0.305699,	0.000001
2.087500,	0.300949,	0.000001
2.112500,	0.296200,	0.000001
2.137500,	0.291450,	0.000001
2.162500,	0.286700,	0.000001
2.187500,	0.281951,	0.000001
2.212500,	0.277201,	0.000001
2.237500,	0.272452,	0.000001
2.262500,	0.267702,	0.000001
2.287500,	0.262953,	0.000001
2.312500,	0.258203,	0.000001
2.337500,	0.253453,	0.000001
2.362500,	0.248703,	0.000001
2.387500,	0.243954,	0.000001
2.412500,	0.239204,	0.000001
2.437500,	0.234455,	0.000001
2.462500,	0.229705,	0.000001
2.487500,	0.224956,	0.000001
0.012500,	0.009409,	0.000002
0.037500,	0.027907,	0.000002
0.062500,	0.046405,	0.000002
0.087500,	0.064902,	0.000002
0.112500,	0.083400,	0.000002
0.137500,	0.101897,	0.000002
0.162500,	0.120395,	0.000002
0.187500,	0.138893,	0.000002
0.212500,	0.157390,	0.000002
0.237500,	0.175888,	0.000002
0.262500,	0.194386,	0.000001
0.287500,	0.212883,	0.000001
0.312500,	0.231381,	0.000001
0.337500,	0.249878,	0.000001
0.362500,	0.268376,	0.000001
0.387500,	0.286874,	0.000001
0.412500,	0.305372,	0.000001
0.437500,	0.323869,	0.000001
0.462500,	0.342367,	0.000001
0.487500,	0.360864,	0.000001
0.512500,	0.379362,	0.000001
0.537500,	0.397860,	0.000001
0.562500,	0.416357,	0.000001
0.587500,	0.434855,	0.000001
0.612500,	0.453352,	0.000001
0.637500,	0.471850,	0.000001
0.662500,	0.490348,	0.000001
0.687500,	0.508845,	0.000001
0.712500,	0.527343,	0.000001
0.737500,	0.545841,	0.000001
0.762500,	0.552715,	0.000001
0.787500,	0.547965,	0.000001
0.812500,	0.543216,	0.000001
0.837500,	0.538467,	0.000001
0.862500,	0.533717,	0.000001
0.887500,	0.528968,	0.000001
0.912500,	0.524218,	0.000001
0.937500,	0.519469,	0.000001
0.962500,	0.514720,	0.000001
0.987500,	0.509970,	0.000001
1.012500,	0.505221,	0.000001
1.037500,	0.500471,	0.000001
1.062500,	0.495722,	0.000001
1.087500,	0.490973,	0.000001
1.112500,	0.486223,	0.000001
1.137500,	0.481474,	0.000001
1.162500,	0.476724,	0.000001
1.187500,	0.471975,	0.000001
1.212500,	0.467226,	0.000001
1.237500,	0.462476,	0.000001
1.262500,	0.457727,	0.000001
1.287500,	0.452978,	0.000001
1.312500,	0.448228,	0.000001
1.337500,	0.443479,	0.000001
1.362500,	0.438729,	0.000001
1.387500,	0.433980,	0.000001
1.412500,	0.429230,	0.000001
1.437500,	0.424481,	0.000001
1.462500,	0.419732,	0.000001
1.487500,	0.414982,	0.000001
1.512500,	0.410233,	0.000001
1.537500,	0.405484,	0.000001
1.562500,	0.400734,	0.000001
1.587500,	0.395985,	0.000001
1.612500,	0.391235,	0.000001
1.637500,	0.386486,	0.000001
1.662500,	0.381736,	0.000001
1.687500,	0.376987,	0.000001
1.712500,	0.372238,	0.000001
1.737500,	0.367488,	0.000001
1.762500,	0.362739,	0.000001
1.787500,	0.357990,	0.000001
1.812500,	0.353240,	0.000001
1.837500,	0.348491,	0.000001
1.862500,	0.343741,	0.000001
1.887500,	0.338992,	0.000001
1.912500,	0.334243,	0.000001
1.937500,	0.329493,	0.000001
1.962500,	0.324744,	0.000001
1.987500,	0.319994,	0.000001
2.012500,	0.315245,	0.000001
2.037500,	0.310496,	0.000001
2.062500,	0.305746,	0.000001
2.087500,	0.300997,	0.000001
2.112500,	0.296247,	0.000001
2.137500,	0.291498,	0.000001
2.162500,	0.286749,	0.000001
2.187500,	0.281999,	0.000001
2.212500,	0.277250,	0.000001
2.237500,	0.272501,	0.000001
2.262500,	0.267751,	0.000001
2.287500,	0.263002,	0.000001
2.312500,	0.258253,	0.000001
2.337500,	0.253503,	0.000001
2.362500,	0.248753,	0.000001
2.387500,	0.244004,	0.000001
2.412500,	0.239255,	0.000001
2.437500,	0.234506,	0.000001
2.462500,	0.229756,	0.000001
2.487500,	0.225007,	0.000001
0.012500,	0.009487,	0.000002
0.037500,	0.027984,	0.000002
0.062500,	0.046480,	0.000002
0.087500,	0.064976,	0.000002
0.112500,	0.083473,	0.000002
0.137500,	0.101969,	0.000002
0.162500,	0.120466,	0.000002
0.187500,	0.138962,	0.000002
0.212500,	0.157459,	0.000002
0.237500,	0.175955,	0.000002
0.262500,	0.194452,	0.000002
0.287500,	0.212948,	0.000002
0.312500,	0.231445,	0.000002
0.337500,	0.249941,	0.000002
0.362500,	0.268437,	0.000002
0.387500,	0.286934,	0.000002
0.412500,	0.305431,	0.000002
0.437500,	0.323927,	0.000002
0.462500,	0.342424,	0.000002
0.487500,	0.360920,	0.000002
0.512500,	0.379416,	0.000002
0.537500,	0.397913,	0.000001
0.562500,	0.416409,	0.000001
0.587500,	0.434906,	0.000001
0.612500,	0.453402,	0.000001
0.637500,	0.471899,	0.000001
0.662500,	0.490396,	0.000001
0.687500,	0.508892,	0.000001
0.712500,	0.527388,	0.000001
0.737500,	0.545885,	0.000001
0.762500,	0.552758,	0.000001
0.787500,	0.548010,	0.000001
0.812500,	0.543260,	0.000001
0.837500,	0.538511,	0.000001
0.862500,	0.533762,	0.000001
0.887500,	0.529013,	0.000001
0.912500,	0.524264,	0.000001
0.937500,	0.519515,	0.000001
0.962500,	0.514766,	0.000001
0.987500,	0.510017,	0.000001
1.012500,	0.505268,	0.000001
1.037500,	0.500518,	0.000001
1.062500,	0.495769,	0.000001
1.087500,	0.491020,	0.000001
1.112500,	0.486271,	0.000001
1.137500,	0.481522,	0.000001
1.162500,	0.476773,	0.000001
1.187500,	0.472024,	0.000001
1.212500,	0.467274,	0.000001
1.237500,	0.462525,	0.000001
1.262500,	0.457776,	0.000001
1.287500,	0.453028,	0.000001
1.312500,	0.448279,	0.000001
1.337500,	0.443530,	0.000001
1.362500,	0.438781,	0.000001
1.387500,	0.434031,	0.000001
1.412500,	0.429282,	0.000001
1.437500,	0.424533,	0.000001
1.462500,	0.419784,	0.000001
1.487500,	0.415035,	0.000001
1.512500,	0.410285,	0.000001
1.537500,	0.405537,	0.000001
1.562500,	0.400788,	0.000001
1.587500,	0.396038,	0.000001
1.612500,	0.391289,	0.000001
1.637500,	0.386540,	0.000001
1.662500,	0.381791,	0.000002
1.687500,	0.377042,	0.000002
1.712500,	0.372293,	0.000002
1.737500,	0.367544,	0.000002
1.762500,	0.362795,	0.000002
1.787500,	0.358046,	0.000002
1.812500,	0.353297,	0.000002
1.837500,	0.348548,	0.000002
1.862500,	0.343798,	0.000002
1.887500,	0.339049,	0.000002
1.912500,	0.334300,	0.000002
1.937500,	0.329551,	0.000002
1.962500,	0.324802,	0.000002
1.987500,	0.320053,	0.000002
2.012500,	0.315303,	0.000002
2.037500,	0.310555,	0.000002
2.062500,	0.305806,	0.000002
2.087500,	0.301057,	0.000002
2.112500,	0.296308,	0.000002
2.137500,	0.291558,	0.000002
2.162500,	0.286809,	0.000002
2.187500,	0.282060,	0.000002
2.212500,	0.277311,	0.000002
2.237500,	0.272562,	0.000002
2.262500,	0.267813,	0.000002
2.287500,	0.263064,	0.000002
2.312500,	0.258315,	0.000002
2.337500,	0.253565,	0.000002
2.362500,	0.248816,	0.000002
2.387500,	0.244067,	0.000002
2.412500,	0.239318,	0.000002
2.437500,	0.234569,	0.000002
2.462500,	0.229820,	0.000002
2.487500,	0.225071,	0.000002
0.012500,	0.009580,	0.000003
0.037500,	0.028075,	0.000002
0.062500,	0.046570,	0.000002
0.087500,	0.065065,	0.000002
0.112500,	0.083561,	0.000002
0.137500,	0.102055,	0.000002
0.162500,	0.120551,	0.000002
0.187500,	0.139046,	0.000002
0.212500,	0.157541,	0.000002
0.237500,	0.176036,	0.000002
0.262500,	0.194531,	0.000002
0.287500,	0.213026,	0.000002
0.312500,	0.231521,	0.000002
0.337500,	0.250016,	0.000002
0.362500,	0.268512,	0.000002
0.387500,	0.287006,	0.000002
0.412500,	0.305501,	0.000002
0.437500,	0.323997,	0.000002
0.462500,	0.342492,	0.000002
0.487500,	0.360987,	0.000002
0.512500,	0.379482,	0.000002
0.537500,	0.397977,	0.000002
0.562500,	0.416472,	0.000002
0.587500,	0.434967,	0.000002
0.612500,	0.453462,	0.000002
0.637500,	0.471957,	0.000002
0.662500,	0.490453,	0.000002
0.687500,	0.508948,	0.000002
0.712500,	0.527443,	0.000001
0.737500,	0.545938,	0.000001
0.762500,	0.552811,	0.000001
0.787500,	0.548062,	0.000001
0.812500,	0.543314,	0.000001
0.837500,	0.538565,	0.000001
0.862500,	0.533816,	0.000001
0.887500,	0.529068,	0.000001
0.912500,	0.524319,	0.000001
0.937500,	0.519570,	0.000001
0.962500,	0.514821,	0.000001
0.987500,	0.510072,	0.000002
1.012500,	0.505324,	0.000002
1.037500,	0.500575,	0.000002
1.062500,	0.495826,	0.000002
1.087500,	0.491077,	0.000002
1.112500,	0.486329,	0.000002
1.137500,	0.481580,	0.000002
1.162500,	0.476831,	0.000002
1.187500,	0.472082,	0.000002
1.212500,	0.467334,	0.000002
1.237500,	0.462585,	0.000002
1.262500,	0.457836,	0.000002
1.287500,	0.453088,	0.000002
1.312500,	0.448339,	0.000002
1.337500,	0.443590,	0.000002
1.362500,	0.438841,	0.000002
1.387500,	0.434093,	0.000002
1.412500,	0.429344,	0.000002
1.437500,	0.424595,	0.000002
1.462500,	0.419846,	0.000002
1.487500,	0.415097,	0.000002
1.512500,	0.410349,	0.000002
1.537500,	0.405600,	0.000002
1.562500,	0.400851,	0.000002
1.587500,	0.396102,	0.000002
1.612500,	0.391354,	0.000002
1.637500,	0.386605,	0.000002
1.662500,	0.381856,	0.000002
1.687500,	0.377108,	0.000002
1.712500,	0.372359,	0.000002
1.737500,	0.367610,	0.000002
1.762500,	0.362862,	0.000002
1.787500,	0.358113,	0.000002
1.812500,	0.353364,	0.000002
1.837500,	0.348615,	0.000002
1.862500,	0.343866,	0.000002
1.887500,	0.339118,	0.000002
1.912500,	0.334369,	0.000002
1.937500,	0.329620,	0.000002
1.962500,	0.324871,	0.000002
1.987500,	0.320122,	0.000002
2.012500,	0.315374,	0.000002
2.037500,	0.310625,	0.000002
2.062500,	0.305877,	0.000002
2.087500,	0.301128,	0.000002
2.112500,	0.296379,	0.000002
2.137500,	0.291631,	0.000002
2.162500,	0.286882,	0.000002
2.187500,	0.282133,	0.000002
2.212500,	0.277384,	0.000002
2.237500,	0.272635,	0.000002
2.262500,	0.267887,	0.000002
2.287500,	0.263138,	0.000002
2.312500,	0.258389,	0.000002
2.337500,	0.253640,	0.000002
2.362500,	0.248891,	0.000002
2.387500,	0.244143,	0.000002
2.412500,	0.239394,	0.000002
2.437500,	0.234646,	0.000002
2.462500,	0.229897,	0.000002
2.487500,	0.225148,	0.000002
0.012500,	0.009689,	0.000003
0.037500,	0.028182,	0.000003
0.062500,	0.046676,	0.000003
0.087500,	0.065169,	0.000003
0.112500,	0.083663,	0.000003
0.137500,	0.102156,	0.000003
0.162500,	0.120649,	0.000003
0.187500,	0.139143,	0.000003
0.212500,	0.157637,	0.000003
0.237500,	0.176130,	0.000003
0.262500,	0.194624,	0.000002
0.287500,	0.213117,	0.000002
0.312500,	0.231611,	0.000002
0.337500,	0.250104,	0.000002
0.362500,	0.268598,	0.000002
0.387500,	0.287091,	0.000002
0.412500,	0.305584,	0.000002
0.437500,	0.324078,	0.000002
0.462500,	0.342572,	0.000002
0.487500,	0.361065,	0.000002
0.512500,	0.379558,	0.000002
0.537500,	0.398052,	0.000002
0.562500,	0.416545,	0.000002
0.587500,	0.435039,	0.000002
0.612500,	0.453533,	0.000002
0.637500,	0.472026,	0.000002
0.662500,	0.490519,	0.000002
0.687500,	0.509013,	0.000002
0.712500,	0.527506,	0.000002
0.737500,	0.546000,	0.000002
0.762500,	0.552872,	0.000002
0.787500,	0.548124,	0.000002
0.812500,	0.543376,	0.000002
0.837500,	0.538628,	0.000002
0.862500,	0.533879,	0.000002
0.887500,	0.529131,	0.000002
0.912500,	0.524383,	0.000002
0.937500,	0.519634,	0.000002
0.962500,	0.514885,	0.000002
0.987500,	0.510137,	0.000002
1.012500,	0.505389,	0.000002
1.037500,	0.500641,	0.000002
1.062500,	0.495893,	0.000002
1.087500,	0.491144,	0.000002
1.112500,	0.486396,	0.000002
1.137500,	0.481648,	0.000002
1.162500,	0.476900,	0.000002
1.187500,	0.472151,	0.000002
1.212500,	0.467402,	0.000002
1.237500,	0.462654,	0.000002
1.262500,	0.457906,	0.000002
1.287500,	0.453157,	0.000002
1.312500,	0.448409,	0.000002
1.337500,	0.443661,	0.000002
1.362500,	0.438913,	0.000002
1.387500,	0.434165,	0.000002
1.412500,	0.429416,	0.000002
1.437500,	0.424667,	0.000002
1.462500,	0.419919,	0.000002
1.487500,	0.415171,	0.000002
1.512500,	0.410423,	0.000002
1.537500,	0.405674,	0.000002
1.562500,	0.400926,	0.000002
1.587500,	0.396178,	0.000002
1.612500,	0.391429,	0.000002
1.637500,	0.386681,	0.000002
1.662500,	0.381933,	0.000002
1.687500,	0.377184,	0.000002
1.712500,	0.372436,	0.000002
1.737500,	0.367688,	0.000002
1.762500,	0.362939,	0.000002
1.787500,	0.358191,	0.000002
1.812500,	0.353443,	0.000002
1.837500,	0.348694,	0.000002
1.862500,	0.343946,	0.000002
1.887500,	0.339198,	0.000002
1.912500,	0.334449,	0.000002
1.937500,	0.329701,	0.000002
1.962500,	0.324952,	0.000002
1.987500,	0.320204,	0.000002
2.012500,	0.315456,	0.000002
2.037500,	0.310708,	0.000002
2.062500,	0.305959,	0.000002
2.087500,	0.301211,	0.000002
2.112500,	0.296463,	0.000002
2.137500,	0.291714,	0.000002
2.162500,	0.286966,	0.000002
2.187500,	0.282218,	0.000002
2.212500,	0.277469,	0.000002
2.237500,	0.272721,	0.000002
2.262500,	0.267973,	0.000002
2.287500,	0.263224,	0.000002
2.312500,	0.258476,	0.000002
2.337500,	0.253728,	0.000002
2.362500,	0.248979,	0.000002
2.387500,	0.244231,	0.000002
2.412500,	0.239483,	0.000002
2.437500,	0.234734,	0.000002
2.462500,	0.229986,	0.000002
2.487500,	0.225238,	0.000002
0.012500,	0.009813,	0.000003
0.037500,	0.028305,	0.000003
0.062500,	0.046797,	0.000003
0.087500,	0.065288,	0.000003
0.112500,	0.083780,	0.000003
0.137500,	0.102271,	0.000003
0.162500,	0.120763,	0.000003
0.187500,	0.139255,	0.000003
0.212500,	0.157746,	0.000003
0.237500,	0.176238,	0.000003
0.262500,	0.194729,	0.000003
0.287500,	0.213221,	0.000003
0.312500,	0.231713,	0.000003
0.337500,	0.250204,	0.000003
0.362500,	0.268696,	0.000003
0.387500,	0.287188,	0.000003
0.412500,	0.305679,	0.000003
0.437500,	0.324171,	0.000002
0.462500,	0.342662,	0.000002
0.487500,	0.361154,	0.000002
0.512500,	0.379646,	0.000002
0.537500,	0.398138,	0.000002
0.562500,	0.416629,	0.000002
0.587500,	0.435121,	0.000002
0.612500,	0.453612,	0.000002
0.637500,	0.472104,	0.000002
0.662500,	0.490596,	0.000002
0.687500,	0.509087,	0.000002
0.712500,	0.527579,	0.000002
0.737500,	0.546071,	0.000002
0.762500,	0.552942,	0.000002
0.787500,	0.548195,	0.000002
0.812500,	0.543447,	0.000002
0.837500,	0.538699,	0.000002
0.862500,	0.533951,	0.000002
0.887500,	0.529203,	0.000002
0.912500,	0.524455,	0.000002
0.937500,	0.519708,	0.000002
0.962500,	0.514960,	0.000002
0.987500,	0.510211,	0.000002
1.012500,	0.505464,	0.000002
1.037500,	0.500716,	0.000002
1.062500,	0.495968,	0.000002
1.087500,	0.491221,	0.000002
1.112500,	0.486472,	0.000002
1.137500,	0.481725,	0.000002
1.162500,	0.476977,	0.000002
1.187500,	0.472229,	0.000002
1.212500,	0.467481,	0.000002
1.237500,	0.462733,	0.000002
1.262500,	0.457985,	0.000002
1.287500,	0.453238,	0.000002
1.312500,	0.448490,	0.000002
1.337500,	0.443742,	0.000002
1.362500,	0.438994,	0.000002
1.387500,	0.434246,	0.000002
1.412500,	0.429498,	0.000002
1.437500,	0.424750,	0.000002
1.462500,	0.420003,	0.000002
1.487500,	0.415254,	0.000002
1.512500,	0.410507,	0.000002
1.537500,	0.405759,	0.000002
1.562500,	0.401011,	0.000002
1.587500,	0.396263,	0.000002
1.612500,	0.391515,	0.000002
1.637500,	0.386768,	0.000002
1.662500,	0.382020,	0.000002
1.687500,	0.377272,	0.000002
1.712500,	0.372524,	0.000002
1.737500,	0.367776,	0.000002
1.762500,	0.363028,	0.000002
1.787500,	0.358281,	0.000002
1.812500,	0.353533,	0.000002
1.837500,	0.348785,	0.000002
1.862500,	0.344037,	0.000002
1.887500,	0.339289,	0.000002
1.912500,	0.334541,	0.000002
1.937500,	0.329793,	0.000002
1.962500,	0.325045,	0.000002
1.987500,	0.320298,	0.000002
2.012500,	0.315550,	0.000002
2.037500,	0.310802,	0.000003
2.062500,	0.306054,	0.000003
2.087500,	0.301306,	0.000003
2.112500,	0.296559,	0.000003
2.137500,	0.291811,	0.000003
2.162500,	0.287062,	0.000003
2.187500,	0.282315,	0.000003
2.212500,	0.277567,	0.000003
2.237500,	0.272819,	0.000003
2.262500,	0.268071,	0.000003
2.287500,	0.263323,	0.000003
2.312500,	0.258576,	0.000003
2.337500,	0.253828,	0.000003
2.362500,	0.249080,	0.000003
2.387500,	0.244332,	0.000003
2.412500,	0.239584,	0.000003
2.437500,	0.234836,	0.000003
2.462500,	0.230089,	0.000003
2.487500,	0.225340,	0.000003
0.012500,	0.009953,	0.000004
0.037500,	0.028442,	0.000004
0.062500,	0.046932,	0.000004
0.087500,	0.065421,	0.000004
0.112500,	0.083911,	0.000003
0.137500,	0.102401,	0.000003
0.162500,	0.120890,	0.000003
0.187500,	0.139380,	0.000003
0.212500,	0.157869,	0.000003
0.237500,	0.176359,	0.000003
0.262500,	0.194849,	0.000003
0.287500,	0.213338,	0.000003
0.312500,	0.231828,	0.000003
0.337500,	0.250317,	0.000003
0.362500,	0.268807,	0.000003
0.387500,	0.287296,	0.000003
0.412500,	0.305786,	0.000003
0.437500,	0.324275,	0.000003
0.462500,	0.342765,	0.000003
0.487500,	0.361254,	0.000003
0.512500,	0.379744,	0.000003
0.537500,	0.398234,	0.000003
0.562500,	0.416723,	0.000002
0.587500,	0.435213,	0.000002
0.612500,	0.453703,	0.000002
0.637500,	0.472192,	0.000002
0.662500,	0.490682,	0.000002
0.687500,	0.509171,	0.000002
0.712500,	0.527661,	0.000002
0.737500,	0.546150,	0.000002
0.762500,	0.553021,	0.000002
0.787500,	0.548274,	0.000002
0.812500,	0.543527,	0.000002
0.837500,	0.538779,	0.000002
0.862500,	0.534032,	0.000002
0.887500,	0.529284,	0.000002
0.912500,	0.524537,	0.000002
0.937500,	0.519790,	0.000002
0.962500,	0.515043,	0.000002
0.987500,	0.510295,	0.000002
1.012500,	0.505548,	0.000002
1.037500,	0.500801,	0.000002
1.062500,	0.496053,	0.000002
1.087500,	0.491306,	0.000002
1.112500,	0.486559,	0.000002
1.137500,	0.481812,	0.000002
1.162500,	0.477064,	0.000002
1.187500,	0.472317,	0.000002
1.212500,	0.467570,	0.000002
1.237500,	0.462822,	0.000002
1.262500,	0.458075,	0.000002
1.287500,	0.453328,	0.000002
1.312500,	0.448581,	0.000002
1.337500,	0.443833,	0.000002
1.362500,	0.439085,	0.000002
1.387500,	0.434338,	0.000002
1.412500,	0.429591,	0.000002
1.437500,	0.424843,	0.000002
1.462500,	0.420096,	0.000002
1.487500,	0.415349,	0.000002
1.512500,	0.410601,	0.000002
1.537500,	0.405854,	0.000003
1.562500,	0.401107,	0.000003
1.587500,	0.396360,	0.000003
1.612500,	0.391612,	0.000003
1.637500,	0.386865,	0.000003
1.662500,	0.382118,	0.000003
1.687500,	0.377370,	0.000003
1.712500,	0.372623,	0.000003
1.737500,	0.367876,	0.000003
1.762500,	0.363129,	0.000003
1.787500,	0.358381,	0.000003
1.812500,	0.353634,	0.000003
1.837500,	0.348887,	0.000003
1.862500,	0.344139,	0.000003
1.887500,	0.339392,	0.000003
1.912500,	0.334645,	0.000003
1.937500,	0.329898,	0.000003
1.962500,	0.325150,	0.000003
1.987500,	0.320402,	0.000003
2.012500,	0.315655,	0.000003
2.037500,	0.310908,	0.000003
2.062500,	0.306161,	0.000003
2.087500,	0.301413,	0.000003
2.112500,	0.296666,	0.000003
2.137500,	0.291919,	0.000003
2.162500,	0.287171,	0.000003
2.187500,	0.282424,	0.000003
2.212500,	0.277677,	0.000003
2.237500,	0.272929,	0.000003
2.262500,	0.268182,	0.000003
2.287500,	0.263435,	0.000003
2.312500,	0.258688,	0.000003
2.337500,	0.253940,	0.000003
2.362500,	0.249193,	0.000003
2.387500,	0.244446,	0.000003
2.412500,	0.239698,	0.000003
2.437500,	0.234951,	0.000003
2.462500,	0.230204,	0.000003
2.487500,	0.225456,	0.000003
0.012500,	0.010108,	0.000004
0.037500,	0.028596,	0.000004
0.062500,	0.047083,	0.000004
0.087500,	0.065570,	0.000004
0.112500,	0.084057,	0.000004
0.137500,	0.102544,	0.000004
0.162500,	0.121032,	0.000004
0.187500,	0.139519,	0.000004
0.212500,	0.158006,	0.000004
0.237500,	0.176494,	0.000004
0.262500,	0.194981,	0.000003
0.287500,	0.213468,	0.000003
0.312500,	0.231955,	0.000003
0.337500,	0.250442,	0.000003
0.362500,	0.268930,	0.000003
0.387500,	0.287417,	0.000003
0.412500,	0.305904,	0.000003
0.437500,	0.324391,	0.000003
0.462500,	0.342879,	0.000003
0.487500,	0.361366,	0.000003
0.512500,	0.379854,	0.000003
0.537500,	0.398341,	0.000003
0.562500,	0.416828,	0.000003
0.587500,	0.435315,	0.000003
0.612500,	0.453802,	0.000003
0.637500,	0.472290,	0.000003
0.662500,	0.490777,	0.000002
0.687500,	0.509264,	0.000002
0.712500,	0.527751,	0.000002
0.737500,	0.546239,	0.000002
0.762500,	0.553109,	0.000002