TITLE = "MeshVolumeStats"
VARIABLES = "X", "Y", "VOL"
ZONE I=300, J=200, DATAPACKING=POINT
0.001667,	0.000003,	0.000000
0.005000,	0.000003,	0.000000
0.008334,	0.000003,	0.000000
0.011667,	0.000003,	0.000000
0.015000,	0.000003,	0.000000
0.018334,	0.000003,	0.000000
0.021666,	0.000003,	0.000000
0.025000,	0.000003,	0.000000
0.028333,	0.000003,	0.000000
0.031667,	0.000003,	0.000000
0.035000,	0.000003,	0.000000
0.038334,	0.000003,	0.000000
0.041667,	0.000003,	0.000000
0.045000,	0.000003,	0.000000
0.048334,	0.000003,	0.000000
0.051667,	0.000003,	0.000000
0.055000,	0.000003,	0.000000
0.058333,	0.000003,	0.000000
0.061666,	0.000003,	0.000000
0.065000,	0.000003,	0.000000
0.068334,	0.000003,	0.000000
0.071666,	0.000003,	0.000000
0.075000,	0.000003,	0.000000
0.078334,	0.000003,	0.000000
0.081667,	0.000003,	0.000000
0.085000,	0.000003,	0.000000
0.088333,	0.000003,	0.000000
0.091666,	0.000003,	0.000000
0.095000,	0.000003,	0.000000
0.098334,	0.000003,	0.000000
0.101666,	0.000003,	0.000000
0.105000,	0.000003,	0.000000
0.108334,	0.000003,	0.000000
0.111667,	0.000003,	0.000000
0.115000,	0.000003,	0.000000
0.118334,	0.000003,	0.000000
0.121667,	0.000003,	0.000000
0.125000,	0.000003,	0.000000
0.128333,	0.000003,	0.000000
0.131667,	0.000003,	0.000000
0.135000,	0.000003,	0.000000
0.138334,	0.000003,	0.000000
0.141667,	0.000003,	0.000000
0.145000,	0.000003,	0.000000
0.148334,	0.000003,	0.000000
0.151666,	0.000003,	0.000000
0.155000,	0.000003,	0.000000
0.158334,	0.000003,	0.000000
0.161666,	0.000003,	0.000000
0.165000,	0.000003,	0.000000
0.168334,	0.000003,	0.000000
0.171667,	0.000003,	0.000000
0.175000,	0.000003,	0.000000
0.178333,	0.000003,	0.000000
0.181667,	0.000003,	0.000000
0.185000,	0.000003,	0.000000
0.188333,	0.000003,	0.000000
0.191667,	0.000003,	0.000000
0.195000,	0.000003,	0.000000
0.198334,	0.000003,	0.000000
0.201667,	0.000003,	0.000000
0.205000,	0.000003,	0.000000
0.208334,	0.000003,	0.000000
0.211666,	0.000003,	0.000000
0.215000,	0.000003,	0.000000
0.218334,	0.000003,	0.000000
0.221666,	0.000003,	0.000000
0.225000,	0.000003,	0.000000
0.228334,	0.000003,	0.000000
0.231667,	0.000003,	0.000000
0.235000,	0.000003,	0.000000
0.238333,	0.000003,	0.000000
0.241667,	0.000003,	0.000000
0.245000,	0.000003,	0.000000
0.248333,	0.000003,	0.000000
0.251667,	0.000003,	0.000000
0.255000,	0.000003,	0.000000
0.258333,	0.000003,	0.000000
0.261667,	0.000003,	0.000000
0.265000,	0.000003,	0.000000
0.268334,	0.000003,	0.000000
0.271667,	0.000003,	0.000000
0.275000,	0.000003,	0.000000
0.278334,	0.000003,	0.000000
0.281667,	0.000003,	0.000000
0.285000,	0.000003,	0.000000
0.288334,	0.000003,	0.000000
0.291667,	0.000003,	0.000000
0.295000,	0.000003,	0.000000
0.298334,	0.000003,	0.000000
0.301667,	0.000003,	0.000000
0.305000,	0.000003,	0.000000
0.308334,	0.000003,	0.000000
0.311666,	0.000003,	0.000000
0.315000,	0.000003,	0.000000
0.318333,	0.000003,	0.000000
0.321666,	0.000003,	0.000000
0.325000,	0.000003,	0.000000
0.328334,	0.000003,	0.000000
0.331666,	0.000003,	0.000000
0.335000,	0.000003,	0.000000
0.338334,	0.000003,	0.000000
0.341666,	0.000003,	0.000000
0.345000,	0.000003,	0.000000
0.348333,	0.000003,	0.000000
0.351666,	0.000003,	0.000000
0.355000,	0.000003,	0.000000
0.358333,	0.000003,	0.000000
0.361667,	0.000003,	0.000000
0.365000,	0.000003,	0.000000
0.368333,	0.000003,	0.000000
0.371667,	0.000003,	0.000000
0.375000,	0.000003,	0.000000
0.378333,	0.000003,	0.000000
0.381667,	0.000003,	0.000000
0.385000,	0.000003,	0.000000
0.388334,	0.000003,	0.000000
0.391667,	0.000003,	0.000000
0.395000,	0.000003,	0.000000
0.398334,	0.000003,	0.000000
0.401667,	0.000003,	0.000000
0.405000,	0.000003,	0.000000
0.408334,	0.000003,	0.000000
0.411666,	0.000003,	0.000000
0.415000,	0.000003,	0.000000
0.418334,	0.000003,	0.000000
0.421667,	0.000003,	0.000000
0.425000,	0.000003,	0.000000
0.428334,	0.000003,	0.000000
0.431667,	0.000003,	0.000000
0.435000,	0.000003,	0.000000
0.438334,	0.000003,	0.000000
0.441666,	0.000003,	0.000000
0.445000,	0.000003,	0.000000
0.448334,	0.000003,	0.000000
0.451666,	0.000003,	0.000000
0.455000,	0.000003,	0.000000
0.458334,	0.000003,	0.000000
0.461666,	0.000003,	0.000000
0.465000,	0.000003,	0.000000
0.468333,	0.000003,	0.000000
0.471666,	0.000003,	0.000000
0.475000,	0.000003,	0.000000
0.478333,	0.000003,	0.000000
0.481667,	0.000003,	0.000000
0.485000,	0.000003,	0.000000
0.488333,	0.000003,	0.000000
0.491667,	0.000003,	0.000000
0.495000,	0.000003,	0.000000
0.498333,	0.000003,	0.000000
0.501667,	0.000003,	0.000000
0.505000,	0.000003,	0.000000
0.508333,	0.000003,	0.000000
0.511667,	0.000003,	0.000000
0.515000,	0.000003,	0.000000
0.518334,	0.000003,	0.000000
0.521667,	0.000003,	0.000000
0.525000,	0.000003,	0.000000
0.528334,	0.000003,	0.000000
0.531667,	0.000003,	0.000000
0.535000,	0.000003,	0.000000
0.538334,	0.000003,	0.000000
0.541667,	0.000003,	0.000000
0.545000,	0.000003,	0.000000
0.548334,	0.000003,	0.000000
0.551667,	0.000003,	0.000000
0.555000,	0.000003,	0.000000
0.558334,	0.000003,	0.000000
0.561667,	0.000003,	0.000000
0.565000,	0.000003,	0.000000
0.568334,	0.000003,	0.000000
0.571666,	0.000003,	0.000000
0.575000,	0.000003,	0.000000
0.578334,	0.000003,	0.000000
0.581666,	0.000003,	0.000000
0.585000,	0.000003,	0.000000
0.588334,	0.000003,	0.000000
0.591666,	0.000003,	0.000000
0.595000,	0.000003,	0.000000
0.598333,	0.000003,	0.000000
0.601666,	0.000003,	0.000000
0.605000,	0.000003,	0.000000
0.608333,	0.000003,	0.000000
0.611667,	0.000003,	0.000000
0.615000,	0.000003,	0.000000
0.618333,	0.000003,	0.000000
0.621667,	0.000003,	0.000000
0.625000,	0.000003,	0.000000
0.628333,	0.000003,	0.000000
0.631667,	0.000003,	0.000000
0.635000,	0.000003,	0.000000
0.638334,	0.000003,	0.000000
0.641667,	0.000003,	0.000000
0.645000,	0.000003,	0.000000
0.648334,	0.000003,	0.000000
0.651667,	0.000003,	0.000000
0.655000,	0.000003,	0.000000
0.658334,	0.000003,	0.000000
0.661666,	0.000003,	0.000000
0.665000,	0.000003,	0.000000
0.001667,	0.000016,	0.000000
0.005000,	0.000016,	0.000000
0.008334,	0.000016,	0.000000
0.011667,	0.000016,	0.000000
0.015000,	0.000016,	0.000000
0.018334,	0.000016,	0.000000
0.021666,	0.000016,	0.000000
0.025000,	0.000016,	0.000000
0.028333,	0.000016,	0.000000
0.031667,	0.000016,	0.000000
0.035000,	0.000016,	0.000000
0.038334,	0.000016,	0.000000
0.041667,	0.000016,	0.000000
0.045000,	0.000016,	0.000000
0.048334,	0.000016,	0.000000
0.051667,	0.000016,	0.000000
0.055000,	0.000016,	0.000000
0.058333,	0.000016,	0.000000
0.061666,	0.000016,	0.000000
0.065000,	0.000016,	0.000000
0.068334,	0.000016,	0.000000
0.071666,	0.000016,	0.000000
0.075000,	0.000016,	0.000000
0.078334,	0.000016,	0.000000
0.081667,	0.000016,	0.000000
0.085000,	0.000016,	0.000000
0.088333,	0.000016,	0.000000
0.091666,	0.000016,	0.000000
0.095000,	0.000016,	0.000000
0.098334,	0.000016,	0.000000
0.101666,	0.000016,	0.000000
0.105000,	0.000016,	0.000000
0.108334,	0.000016,	0.000000
0.111667,	0.000016,	0.000000
0.115000,	0.000016,	0.000000
0.118334,	0.000016,	0.000000
0.121667,	0.000016,	0.000000
0.125000,	0.000016,	0.000000
0.128333,	0.000016,	0.000000
0.131667,	0.000016,	0.000000
0.135000,	0.000016,	0.000000
0.138334,	0.000016,	0.000000
0.141667,	0.000016,	0.000000
0.145000,	0.000016,	0.000000
0.148334,	0.000016,	0.000000
0.151666,	0.000016,	0.000000
0.155000,	0.000016,	0.000000
0.158334,	0.000016,	0.000000
0.161666,	0.000016,	0.000000
0.165000,	0.000016,	0.000000
0.168334,	0.000016,	0.000000
0.171667,	0.000016,	0.000000
0.175000,	0.000016,	0.000000
0.178333,	0.000016,	0.000000
0.181667,	0.000016,	0.000000
0.185000,	0.000016,	0.000000
0.188333,	0.000016,	0.000000
0.191667,	0.000016,	0.000000
0.195000,	0.000016,	0.000000
0.198334,	0.000016,	0.000000
0.201667,	0.000016,	0.000000
0.205000,	0.000016,	0.000000
0.208334,	0.000016,	0.000000
0.211666,	0.000016,	0.000000
0.215000,	0.000016,	0.000000
0.218334,	0.000016,	0.000000
0.221666,	0.000016,	0.000000
0.225000,	0.000016,	0.000000
0.228334,	0.000016,	0.000000
0.231667,	0.000016,	0.000000
0.235000,	0.000016,	0.000000
0.238333,	0.000016,	0.000000
0.241667,	0.000016,	0.000000
0.245000,	0.000016,	0.000000
0.248333,	0.000016,	0.000000
0.251667,	0.000016,	0.000000
0.255000,	0.000016,	0.000000
0.258333,	0.000016,	0.000000
0.261667,	0.000016,	0.000000
0.265000,	0.000016,	0.000000
0.268334,	0.000016,	0.000000
0.271667,	0.000016,	0.000000
0.275000,	0.000016,	0.000000
0.278334,	0.000016,	0.000000
0.281667,	0.000016,	0.000000
0.285000,	0.000016,	0.000000
0.288334,	0.000016,	0.000000
0.291667,	0.000016,	0.000000
0.295000,	0.000016,	0.000000
0.298334,	0.000016,	0.000000
0.301667,	0.000016,	0.000000
0.305000,	0.000016,	0.000000
0.308334,	0.000016,	0.000000
0.311666,	0.000016,	0.000000
0.315000,	0.000016,	0.000000
0.318333,	0.000016,	0.000000
0.321666,	0.000016,	0.000000
0.325000,	0.000016,	0.000000
0.328334,	0.000016,	0.000000
0.331666,	0.000016,	0.000000
0.335000,	0.000016,	0.000000
0.338334,	0.000016,	0.000000
0.341666,	0.000016,	0.000000
0.345000,	0.000016,	0.000000
0.348333,	0.000016,	0.000000
0.351666,	0.000016,	0.000000
0.355000,	0.000016,	0.000000
0.358333,	0.000016,	0.000000
0.361667,	0.000016,	0.000000
0.365000,	0.000016,	0.000000
0.368333,	0.000016,	0.000000
0.371667,	0.000016,	0.000000
0.375000,	0.000016,	0.000000
0.378333,	0.000016,	0.000000
0.381667,	0.000016,	0.000000
0.385000,	0.000016,	0.000000
0.388334,	0.000016,	0.000000
0.391667,	0.000016,	0.000000
0.395000,	0.000016,	0.000000
0.398334,	0.000016,	0.000000
0.401667,	0.000016,	0.000000
0.405000,	0.000016,	0.000000
0.408334,	0.000016,	0.000000
0.411666,	0.000016,	0.000000
0.415000,	0.000016,	0.000000
0.418334,	0.000016,	0.000000
0.421667,	0.000016,	0.000000
0.425000,	0.000016,	0.000000
0.428334,	0.000016,	0.000000
0.431667,	0.000016,	0.000000
0.435000,	0.000016,	0.000000
0.438334,	0.000016,	0.000000
0.441666,	0.000016,	0.000000
0.445000,	0.000016,	0.000000
0.448334,	0.000016,	0.000000
0.451666,	0.000016,	0.000000
0.455000,	0.000016,	0.000000
0.458334,	0.000016,	0.000000
0.461666,	0.000016,	0.000000
0.465000,	0.000016,	0.000000
0.468333,	0.000016,	0.000000
0.471666,	0.000016,	0.000000
0.475000,	0.000016,	0.000000
0.478333,	0.000016,	0.000000
0.481667,	0.000016,	0.000000
0.485000,	0.000016,	0.000000
0.488333,	0.000016,	0.000000
0.491667,	0.000016,	0.000000
0.495000,	0.000016,	0.000000
0.498333,	0.000016,	0.000000
0.501667,	0.000016,	0.000000
0.505000,	0.000016,	0.000000
0.508333,	0.000016,	0.000000
0.511667,	0.000016,	0.000000
0.515000,	0.000016,	0.000000
0.518334,	0.000016,	0.000000
0.521667,	0.000016,	0.000000
0.525000,	0.000016,	0.000000
0.528334,	0.000016,	0.000000
0.531667,	0.000016,	0.000000
0.535000,	0.000016,	0.000000
0.538334,	0.000016,	0.000000
0.541667,	0.000016,	0.000000
0.545000,	0.000016,	0.000000
0.548334,	0.000016,	0.000000
0.551667,	0.000016,	0.000000
0.555000,	0.000016,	0.000000
0.558334,	0.000016,	0.000000
0.561667,	0.000016,	0.000000
0.565000,	0.000016,	0.000000
0.568334,	0.000016,	0.000000
0.571666,	0.000016,	0.000000
0.575000,	0.000016,	0.000000
0.578334,	0.000016,	0.000000
0.581666,	0.000016,	0.000000
0.585000,	0.000016,	0.000000
0.588334,	0.000016,	0.000000
0.591666,	0.000016,	0.000000
0.595000,	0.000016,	0.000000
0.598333,	0.000016,	0.000000
0.601666,	0.000016,	0.000000
0.605000,	0.000016,	0.000000
0.608333,	0.000016,	0.000000
0.611667,	0.000016,	0.000000
0.615000,	0.000016,	0.000000
0.618333,	0.000016,	0.000000
0.621667,	0.000016,	0.000000
0.625000,	0.000016,	0.000000
0.628333,	0.000016,	0.000000
0.631667,	0.000016,	0.000000
0.635000,	0.000016,	0.000000
0.638334,	0.000016,	0.000000
0.641667,	0.000016,	0.000000
0.645000,	0.000016,	0.000000
0.648334,	0.000016,	0.000000
0.651667,	0.000016,	0.000000
0.655000,	0.000016,	0.000000
0.658334,	0.000016,	0.000000
0.661666,	0.000016,	0.000000
0.665000,	0.000016,	0.000000
0.001667,	0.000041,	0.000000
0.005000,	0.000041,	0.000000
0.008334,	0.000041,	0.000000
0.011667,	0.000041,	0.000000
0.015000,	0.000041,	0.000000
0.018334,	0.000041,	0.000000
0.021666,	0.000041,	0.000000
0.025000,	0.000041,	0.000000
0.028333,	0.000041,	0.000000
0.031667,	0.000041,	0.000000
0.035000,	0.000041,	0.000000
0.038334,	0.000041,	0.000000
0.041667,	0.000041,	0.000000
0.045000,	0.000041,	0.000000
0.048334,	0.000041,	0.000000
0.051667,	0.000041,	0.000000
0.055000,	0.000041,	0.000000
0.058333,	0.000041,	0.000000
0.061666,	0.000041,	0.000000
0.065000,	0.000041,	0.000000
0.068334,	0.000041,	0.000000
0.071666,	0.000041,	0.000000
0.075000,	0.000041,	0.000000
0.078334,	0.000041,	0.000000
0.081667,	0.000041,	0.000000
0.085000,	0.000041,	0.000000
0.088333,	0.000041,	0.000000
0.091666,	0.000041,	0.000000
0.095000,	0.000041,	0.000000
0.098334,	0.000041,	0.000000
0.101666,	0.000041,	0.000000
0.105000,	0.000041,	0.000000
0.108334,	0.000041,	0.000000
0.111667,	0.000041,	0.000000
0.115000,	0.000041,	0.000000
0.118334,	0.000041,	0.000000
0.121667,	0.000041,	0.000000
0.125000,	0.000041,	0.000000
0.128333,	0.000041,	0.000000
0.131667,	0.000041,	0.000000
0.135000,	0.000041,	0.000000
0.138334,	0.000041,	0.000000
0.141667,	0.000041,	0.000000
0.145000,	0.000041,	0.000000
0.148334,	0.000041,	0.000000
0.151666,	0.000041,	0.000000
0.155000,	0.000041,	0.000000
0.158334,	0.000041,	0.000000
0.161666,	0.000041,	0.000000
0.165000,	0.000041,	0.000000
0.168334,	0.000041,	0.000000
0.171667,	0.000041,	0.000000
0.175000,	0.000041,	0.000000
0.178333,	0.000041,	0.000000
0.181667,	0.000041,	0.000000
0.185000,	0.000041,	0.000000
0.188333,	0.000041,	0.000000
0.191667,	0.000041,	0.000000
0.195000,	0.000041,	0.000000
0.198334,	0.000041,	0.000000
0.201667,	0.000041,	0.000000
0.205000,	0.000041,	0.000000
0.208334,	0.000041,	0.000000
0.211666,	0.000041,	0.000000
0.215000,	0.000041,	0.000000
0.218334,	0.000041,	0.000000
0.221666,	0.000041,	0.000000
0.225000,	0.000041,	0.000000
0.228334,	0.000041,	0.000000
0.231667,	0.000041,	0.000000
0.235000,	0.000041,	0.000000
0.238333,	0.000041,	0.000000
0.241667,	0.000041,	0.000000
0.245000,	0.000041,	0.000000
0.248333,	0.000041,	0.000000
0.251667,	0.000041,	0.000000
0.255000,	0.000041,	0.000000
0.258333,	0.000041,	0.000000
0.261667,	0.000041,	0.000000
0.265000,	0.000041,	0.000000
0.268334,	0.000041,	0.000000
0.271667,	0.000041,	0.000000
0.275000,	0.000041,	0.000000
0.278334,	0.000041,	0.000000
0.281667,	0.000041,	0.000000
0.285000,	0.000041,	0.000000
0.288334,	0.000041,	0.000000
0.291667,	0.000041,	0.000000
0.295000,	0.000041,	0.000000
0.298334,	0.000041,	0.000000
0.301667,	0.000041,	0.000000
0.305000,	0.000041,	0.000000
0.308334,	0.000041,	0.000000
0.311666,	0.000041,	0.000000
0.315000,	0.000041,	0.000000
0.318333,	0.000041,	0.000000
0.321666,	0.000041,	0.000000
0.325000,	0.000041,	0.000000
0.328334,	0.000041,	0.000000
0.331666,	0.000041,	0.000000
0.335000,	0.000041,	0.000000
0.338334,	0.000041,	0.000000
0.341666,	0.000041,	0.000000
0.345000,	0.000041,	0.000000
0.348333,	0.000041,	0.000000
0.351666,	0.000041,	0.000000
0.355000,	0.000041,	0.000000
0.358333,	0.000041,	0.000000
0.361667,	0.000041,	0.000000
0.365000,	0.000041,	0.000000
0.368333,	0.000041,	0.000000
0.371667,	0.000041,	0.000000
0.375000,	0.000041,	0.000000
0.378333,	0.000041,	0.000000
0.381667,	0.000041,	0.000000
0.385000,	0.000041,	0.000000
0.388334,	0.000041,	0.000000
0.391667,	0.000041,	0.000000
0.395000,	0.000041,	0.000000
0.398334,	0.000041,	0.000000
0.401667,	0.000041,	0.000000
0.405000,	0.000041,	0.000000
0.408334,	0.000041,	0.000000
0.411666,	0.000041,	0.000000
0.415000,	0.000041,	0.000000
0.418334,	0.000041,	0.000000
0.421667,	0.000041,	0.000000
0.425000,	0.000041,	0.000000
0.428334,	0.000041,	0.000000
0.431667,	0.000041,	0.000000
0.435000,	0.000041,	0.000000
0.438334,	0.000041,	0.000000
0.441666,	0.000041,	0.000000
0.445000,	0.000041,	0.000000
0.448334,	0.000041,	0.000000
0.451666,	0.000041,	0.000000
0.455000,	0.000041,	0.000000
0.458334,	0.000041,	0.000000
0.461666,	0.000041,	0.000000
0.465000,	0.000041,	0.000000
0.468333,	0.000041,	0.000000
0.471666,	0.000041,	0.000000
0.475000,	0.000041,	0.000000
0.478333,	0.000041,	0.000000
0.481667,	0.000041,	0.000000
0.485000,	0.000041,	0.000000
0.488333,	0.000041,	0.000000
0.491667,	0.000041,	0.000000
0.495000,	0.000041,	0.000000
0.498333,	0.000041,	0.000000
0.501667,	0.000041,	0.000000
0.505000,	0.000041,	0.000000
0.508333,	0.000041,	0.000000
0.511667,	0.000041,	0.000000
0.515000,	0.000041,	0.000000
0.518334,	0.000041,	0.000000
0.521667,	0.000041,	0.000000
0.525000,	0.000041,	0.000000
0.528334,	0.000041,	0.000000
0.531667,	0.000041,	0.000000
0.535000,	0.000041,	0.000000
0.538334,	0.000041,	0.000000
0.541667,	0.000041,	0.000000
0.545000,	0.000041,	0.000000
0.548334,	0.000041,	0.000000
0.551667,	0.000041,	0.000000
0.555000,	0.000041,	0.000000
0.558334,	0.000041,	0.000000
0.561667,	0.000041,	0.000000
0.565000,	0.000041,	0.000000
0.568334,	0.000041,	0.000000
0.571666,	0.000041,	0.000000
0.575000,	0.000041,	0.000000
0.578334,	0.000041,	0.000000
0.581666,	0.000041,	0.000000
0.585000,	0.000041,	0.000000
0.588334,	0.000041,	0.000000
0.591666,	0.000041,	0.000000
0.595000,	0.000041,	0.000000
0.598333,	0.000041,	0.000000
0.601666,	0.000041,	0.000000
0.605000,	0.000041,	0.000000
0.608333,	0.000041,	0.000000
0.611667,	0.000041,	0.000000
0.615000,	0.000041,	0.000000
0.618333,	0.000041,	0.000000
0.621667,	0.000041,	0.000000
0.625000,	0.000041,	0.000000
0.628333,	0.000041,	0.000000
0.631667,	0.000041,	0.000000
0.635000,	0.000041,	0.000000
0.638334,	0.000041,	0.000000
0.641667,	0.000041,	0.000000
0.645000,	0.000041,	0.000000
0.648334,	0.000041,	0.000000
0.651667,	0.000041,	0.000000
0.655000,	0.000041,	0.000000
0.658334,	0.000041,	0.000000
0.661666,	0.000041,	0.000000
0.665000,	0.000041,	0.000000
0.001667,	0.000078,	0.000000
0.005000,	0.000078,	0.000000
0.008334,	0.000078,	0.000000
0.011667,	0.000078,	0.000000
0.015000,	0.000078,	0.000000
0.018334,	0.000078,	0.000000
0.021666,	0.000078,	0.000000
0.025000,	0.000078,	0.000000
0.028333,	0.000078,	0.000000
0.031667,	0.000078,	0.000000
0.035000,	0.000078,	0.000000
0.038334,	0.000078,	0.000000
0.041667,	0.000078,	0.000000
0.045000,	0.000078,	0.000000
0.048334,	0.000078,	0.000000
0.051667,	0.000078,	0.000000
0.055000,	0.000078,	0.000000
0.058333,	0.000078,	0.000000
0.061666,	0.000078,	0.000000
0.065000,	0.000078,	0.000000
0.068334,	0.000078,	0.000000
0.071666,	0.000078,	0.000000
0.075000,	0.000078,	0.000000
0.078334,	0.000078,	0.000000
0.081667,	0.000078,	0.000000
0.085000,	0.000078,	0.000000
0.088333,	0.000078,	0.000000
0.091666,	0.000078,	0.000000
0.095000,	0.000078,	0.000000
0.098334,	0.000078,	0.000000
0.101666,	0.000078,	0.000000
0.105000,	0.000078,	0.000000
0.108334,	0.000078,	0.000000
0.111667,	0.000078,	0.000000
0.115000,	0.000078,	0.000000
0.118334,	0.000078,	0.000000
0.121667,	0.000078,	0.000000
0.125000,	0.000078,	0.000000
0.128333,	0.000078,	0.000000
0.131667,	0.000078,	0.000000
0.135000,	0.000078,	0.000000
0.138334,	0.000078,	0.000000
0.141667,	0.000078,	0.000000
0.145000,	0.000078,	0.000000
0.148334,	0.000078,	0.000000
0.151666,	0.000078,	0.000000
0.155000,	0.000078,	0.000000
0.158334,	0.000078,	0.000000
0.161666,	0.000078,	0.000000
0.165000,	0.000078,	0.000000
0.168334,	0.000078,	0.000000
0.171667,	0.000078,	0.000000
0.175000,	0.000078,	0.000000
0.178333,	0.000078,	0.000000
0.181667,	0.000078,	0.000000
0.185000,	0.000078,	0.000000
0.188333,	0.000078,	0.000000
0.191667,	0.000078,	0.000000
0.195000,	0.000078,	0.000000
0.198334,	0.000078,	0.000000
0.201667,	0.000078,	0.000000
0.205000,	0.000078,	0.000000
0.208334,	0.000078,	0.000000
0.211666,	0.000078,	0.000000
0.215000,	0.000078,	0.000000
0.218334,	0.000078,	0.000000
0.221666,	0.000078,	0.000000
0.225000,	0.000078,	0.000000
0.228334,	0.000078,	0.000000
0.231667,	0.000078,	0.000000
0.235000,	0.000078,	0.000000
0.238333,	0.000078,	0.000000
0.241667,	0.000078,	0.000000
0.245000,	0.000078,	0.000000
0.248333,	0.000078,	0.000000
0.251667,	0.000078,	0.000000
0.255000,	0.000078,	0.000000
0.258333,	0.000078,	0.000000
0.261667,	0.000078,	0.000000
0.265000,	0.000078,	0.000000
0.268334,	0.000078,	0.000000
0.271667,	0.000078,	0.000000
0.275000,	0.000078,	0.000000
0.278334,	0.000078,	0.000000
0.281667,	0.000078,	0.000000
0.285000,	0.000078,	0.000000
0.288334,	0.000078,	0.000000
0.291667,	0.000078,	0.000000
0.295000,	0.000078,	0.000000
0.298334,	0.000078,	0.000000
0.301667,	0.000078,	0.000000
0.305000,	0.000078,	0.000000
0.308334,	0.000078,	0.000000
0.311666,	0.000078,	0.000000
0.315000,	0.000078,	0.000000
0.318333,	0.000078,	0.000000
0.321666,	0.000078,	0.000000
0.325000,	0.000078,	0.000000
0.328334,	0.000078,	0.000000
0.331666,	0.000078,	0.000000
0.335000,	0.000078,	0.000000
0.338334,	0.000078,	0.000000
0.341666,	0.000078,	0.000000
0.345000,	0.000078,	0.000000
0.348333,	0.000078,	0.000000
0.351666,	0.000078,	0.000000
0.355000,	0.000078,	0.000000
0.358333,	0.000078,	0.000000
0.361667,	0.000078,	0.000000
0.365000,	0.000078,	0.000000
0.368333,	0.000078,	0.000000
0.371667,	0.000078,	0.000000
0.375000,	0.000078,	0.000000
0.378333,	0.000078,	0.000000
0.381667,	0.000078,	0.000000
0.385000,	0.000078,	0.000000
0.388334,	0.000078,	0.000000
0.391667,	0.000078,	0.000000
0.395000,	0.000078,	0.000000
0.398334,	0.000078,	0.000000
0.401667,	0.000078,	0.000000
0.405000,	0.000078,	0.000000
0.408334,	0.000078,	0.000000
0.411666,	0.000078,	0.000000
0.415000,	0.000078,	0.000000
0.418334,	0.000078,	0.000000
0.421667,	0.000078,	0.000000
0.425000,	0.000078,	0.000000
0.428334,	0.000078,	0.000000
0.431667,	0.000078,	0.000000
0.435000,	0.000078,	0.000000
0.438334,	0.000078,	0.000000
0.441666,	0.000078,	0.000000
0.445000,	0.000078,	0.000000
0.448334,	0.000078,	0.000000
0.451666,	0.000078,	0.000000
0.455000,	0.000078,	0.000000
0.458334,	0.000078,	0.000000
0.461666,	0.000078,	0.000000
0.465000,	0.000078,	0.000000
0.468333,	0.000078,	0.000000
0.471666,	0.000078,	0.000000
0.475000,	0.000078,	0.000000
0.478333,	0.000078,	0.000000
0.481667,	0.000078,	0.000000
0.485000,	0.000078,	0.000000
0.488333,	0.000078,	0.000000
0.491667,	0.000078,	0.000000
0.495000,	0.000078,	0.000000
0.498333,	0.000078,	0.000000
0.501667,	0.000078,	0.000000
0.505000,	0.000078,	0.000000
0.508333,	0.000078,	0.000000
0.511667,	0.000078,	0.000000
0.515000,	0.000078,	0.000000
0.518334,	0.000078,	0.000000
0.521667,	0.000078,	0.000000
0.525000,	0.000078,	0.000000
0.528334,	0.000078,	0.000000
0.531667,	0.000078,	0.000000
0.535000,	0.000078,	0.000000
0.538334,	0.000078,	0.000000
0.541667,	0.000078,	0.000000
0.545000,	0.000078,	0.000000
0.548334,	0.000078,	0.000000
0.551667,	0.000078,	0.000000
0.555000,	0.000078,	0.000000
0.558334,	0.000078,	0.000000
0.561667,	0.000078,	0.000000
0.565000,	0.000078,	0.000000
0.568334,	0.000078,	0.000000
0.571666,	0.000078,	0.000000
0.575000,	0.000078,	0.000000
0.578334,	0.000078,	0.000000
0.581666,	0.000078,	0.000000
0.585000,	0.000078,	0.000000
0.588334,	0.000078,	0.000000
0.591666,	0.000078,	0.000000
0.595000,	0.000078,	0.000000
0.598333,	0.000078,	0.000000
0.601666,	0.000078,	0.000000
0.605000,	0.000078,	0.000000
0.608333,	0.000078,	0.000000
0.611667,	0.000078,	0.000000
0.615000,	0.000078,	0.000000
0.618333,	0.000078,	0.000000
0.621667,	0.000078,	0.000000
0.625000,	0.000078,	0.000000
0.628333,	0.000078,	0.000000
0.631667,	0.000078,	0.000000
0.635000,	0.000078,	0.000000
0.638334,	0.000078,	0.000000
0.641667,	0.000078,	0.000000
0.645000,	0.000078,	0.000000
0.648334,	0.000078,	0.000000
0.651667,	0.000078,	0.000000
0.655000,	0.000078,	0.000000
0.658334,	0.000078,	0.000000
0.661666,	0.000078,	0.000000
0.665000,	0.000078,	0.000000
0.001667,	0.000128,	0.000000
0.005000,	0.000128,	0.000000
0.008334,	0.000128,	0.000000
0.011667,	0.000128,	0.000000
0.015000,	0.000128,	0.000000
0.018334,	0.000128,	0.000000
0.021666,	0.000128,	0.000000
0.025000,	0.000128,	0.000000
0.028333,	0.000128,	0.000000
0.031667,	0.000128,	0.000000
0.035000,	0.000128,	0.000000
0.038334,	0.000128,	0.000000
0.041667,	0.000128,	0.000000
0.045000,	0.000128,	0.000000
0.048334,	0.000128,	0.000000
0.051667,	0.000128,	0.000000
0.055000,	0.000128,	0.000000
0.058333,	0.000128,	0.000000
0.061666,	0.000128,	0.000000
0.065000,	0.000128,	0.000000
0.068334,	0.000128,	0.000000
0.071666,	0.000128,	0.000000
0.075000,	0.000128,	0.000000
0.078334,	0.000128,	0.000000
0.081667,	0.000128,	0.000000
0.085000,	0.000128,	0.000000
0.088333,	0.000128,	0.000000
0.091666,	0.000128,	0.000000
0.095000,	0.000128,	0.000000
0.098334,	0.000128,	0.000000
0.101666,	0.000128,	0.000000
0.105000,	0.000128,	0.000000
0.108334,	0.000128,	0.000000
0.111667,	0.000128,	0.000000
0.115000,	0.000128,	0.000000
0.118334,	0.000128,	0.000000
0.121667,	0.000128,	0.000000
0.125000,	0.000128,	0.000000
0.128333,	0.000128,	0.000000
0.131667,	0.000128,	0.000000
0.135000,	0.000128,	0.000000
0.138334,	0.000128,	0.000000
0.141667,	0.000128,	0.000000
0.145000,	0.000128,	0.000000
0.148334,	0.000128,	0.000000
0.151666,	0.000128,	0.000000
0.155000,	0.000128,	0.000000
0.158334,	0.000128,	0.000000
0.161666,	0.000128,	0.000000
0.165000,	0.000128,	0.000000
0.168334,	0.000128,	0.000000
0.171667,	0.000128,	0.000000
0.175000,	0.000128,	0.000000
0.178333,	0.000128,	0.000000
0.181667,	0.000128,	0.000000
0.185000,	0.000128,	0.000000
0.188333,	0.000128,	0.000000
0.191667,	0.000128,	0.000000
0.195000,	0.000128,	0.000000
0.198334,	0.000128,	0.000000
0.201667,	0.000128,	0.000000
0.205000,	0.000128,	0.000000
0.208334,	0.000128,	0.000000
0.211666,	0.000128,	0.000000
0.215000,	0.000128,	0.000000
0.218334,	0.000128,	0.000000
0.221666,	0.000128,	0.000000
0.225000,	0.000128,	0.000000
0.228334,	0.000128,	0.000000
0.231667,	0.000128,	0.000000
0.235000,	0.000128,	0.000000
0.238333,	0.000128,	0.000000
0.241667,	0.000128,	0.000000
0.245000,	0.000128,	0.000000
0.248333,	0.000128,	0.000000
0.251667,	0.000128,	0.000000
0.255000,	0.000128,	0.000000
0.258333,	0.000128,	0.000000
0.261667,	0.000128,	0.000000
0.265000,	0.000128,	0.000000
0.268334,	0.000128,	0.000000
0.271667,	0.000128,	0.000000
0.275000,	0.000128,	0.000000
0.278334,	0.000128,	0.000000
0.281667,	0.000128,	0.000000
0.285000,	0.000128,	0.000000
0.288334,	0.000128,	0.000000
0.291667,	0.000128,	0.000000
0.295000,	0.000128,	0.000000
0.298334,	0.000128,	0.000000
0.301667,	0.000128,	0.000000
0.305000,	0.000128,	0.000000
0.308334,	0.000128,	0.000000
0.311666,	0.000128,	0.000000
0.315000,	0.000128,	0.000000
0.318333,	0.000128,	0.000000
0.321666,	0.000128,	0.000000
0.325000,	0.000128,	0.000000
0.328334,	0.000128,	0.000000
0.331666,	0.000128,	0.000000
0.335000,	0.000128,	0.000000
0.338334,	0.000128,	0.000000
0.341666,	0.000128,	0.000000
0.345000,	0.000128,	0.000000
0.348333,	0.000128,	0.000000
0.351666,	0.000128,	0.000000
0.355000,	0.000128,	0.000000
0.358333,	0.000128,	0.000000
0.361667,	0.000128,	0.000000
0.365000,	0.000128,	0.000000
0.368333,	0.000128,	0.000000
0.371667,	0.000128,	0.000000
0.375000,	0.000128,	0.000000
0.378333,	0.000128,	0.000000
0.381667,	0.000128,	0.000000
0.385000,	0.000128,	0.000000
0.388334,	0.000128,	0.000000
0.391667,	0.000128,	0.000000
0.395000,	0.000128,	0.000000
0.398334,	0.000128,	0.000000
0.401667,	0.000128,	0.000000
0.405000,	0.000128,	0.000000
0.408334,	0.000128,	0.000000
0.411666,	0.000128,	0.000000
0.415000,	0.000128,	0.000000
0.418334,	0.000128,	0.000000
0.421667,	0.000128,	0.000000
0.425000,	0.000128,	0.000000
0.428334,	0.000128,	0.000000
0.431667,	0.000128,	0.000000
0.435000,	0.000128,	0.000000
0.438334,	0.000128,	0.000000
0.441666,	0.000128,	0.000000
0.445000,	0.000128,	0.000000
0.448334,	0.000128,	0.000000
0.451666,	0.000128,	0.000000
0.455000,	0.000128,	0.000000
0.458334,	0.000128,	0.000000
0.461666,	0.000128,	0.000000
0.465000,	0.000128,	0.000000
0.468333,	0.000128,	0.000000
0.471666,	0.000128,	0.000000
0.475000,	0.000128,	0.000000
0.478333,	0.000128,	0.000000
0.481667,	0.000128,	0.000000
0.485000,	0.000128,	0.000000
0.488333,	0.000128,	0.000000
0.491667,	0.000128,	0.000000
0.495000,	0.000128,	0.000000
0.498333,	0.000128,	0.000000
0.501667,	0.000128,	0.000000
0.505000,	0.000128,	0.000000
0.508333,	0.000128,	0.000000
0.511667,	0.000128,	0.000000
0.515000,	0.000128,	0.000000
0.518334,	0.000128,	0.000000
0.521667,	0.000128,	0.000000
0.525000,	0.000128,	0.000000
0.528334,	0.000128,	0.000000
0.531667,	0.000128,	0.000000
0.535000,	0.000128,	0.000000
0.538334,	0.000128,	0.000000
0.541667,	0.000128,	0.000000
0.545000,	0.000128,	0.000000
0.548334,	0.000128,	0.000000
0.551667,	0.000128,	0.000000
0.555000,	0.000128,	0.000000
0.558334,	0.000128,	0.000000
0.561667,	0.000128,	0.000000
0.565000,	0.000128,	0.000000
0.568334,	0.000128,	0.000000
0.571666,	0.000128,	0.000000
0.575000,	0.000128,	0.000000
0.578334,	0.000128,	0.000000
0.581666,	0.000128,	0.000000
0.585000,	0.000128,	0.000000
0.588334,	0.000128,	0.000000
0.591666,	0.000128,	0.000000
0.595000,	0.000128,	0.000000
0.598333,	0.000128,	0.000000
0.601666,	0.000128,	0.000000
0.605000,	0.000128,	0.000000
0.608333,	0.000128,	0.000000
0.611667,	0.000128,	0.000000
0.615000,	0.000128,	0.000000
0.618333,	0.000128,	0.000000
0.621667,	0.000128,	0.000000
0.625000,	0.000128,	0.000000
0.628333,	0.000128,	0.000000
0.631667,	0.000128,	0.000000
0.635000,	0.000128,	0.000000
0.638334,	0.000128,	0.000000
0.641667,	0.000128,	0.000000
0.645000,	0.000128,	0.000000
0.648334,	0.000128,	0.000000
0.651667,	0.000128,	0.000000
0.655000,	0.000128,	0.000000
0.658334,	0.000128,	0.000000
0.661666,	0.000128,	0.000000
0.665000,	0.000128,	0.000000
0.001667,	0.000190,	0.000000
0.005000,	0.000190,	0.000000
0.008334,	0.000190,	0.000000
0.011667,	0.000190,	0.000000
0.015000,	0.000190,	0.000000
0.018334,	0.000190,	0.000000
0.021666,	0.000190,	0.000000
0.025000,	0.000190,	0.000000
0.028333,	0.000190,	0.000000
0.031667,	0.000190,	0.000000
0.035000,	0.000190,	0.000000
0.038334,	0.000190,	0.000000
0.041667,	0.000190,	0.000000
0.045000,	0.000190,	0.000000
0.048334,	0.000190,	0.000000
0.051667,	0.000190,	0.000000
0.055000,	0.000190,	0.000000
0.058333,	0.000190,	0.000000
0.061666,	0.000190,	0.000000
0.065000,	0.000190,	0.000000
0.068334,	0.000190,	0.000000
0.071666,	0.000190,	0.000000
0.075000,	0.000190,	0.000000
0.078334,	0.000190,	0.000000
0.081667,	0.000190,	0.000000
0.085000,	0.000190,	0.000000
0.088333,	0.000190,	0.000000
0.091666,	0.000190,	0.000000
0.095000,	0.000190,	0.000000
0.098334,	0.000190,	0.000000
0.101666,	0.000190,	0.000000