TITLE = "MeshVolumeStats"
VARIABLES = "X", "Y", "VOL"
ZONE I=200, J=200, DATAPACKING=POINT
0.012500,	0.000018,	0.000001
0.037500,	0.000018,	0.000001
0.062500,	0.000018,	0.000001
0.087500,	0.000018,	0.000001
0.112500,	0.000018,	0.000001
0.137500,	0.000018,	0.000001
0.162500,	0.000018,	0.000001
0.187500,	0.000018,	0.000001
0.212500,	0.000018,	0.000001
0.237500,	0.000018,	0.000001
0.262500,	0.000018,	0.000001
0.287500,	0.000018,	0.000001
0.312500,	0.000018,	0.000001
0.337500,	0.000018,	0.000001
0.362500,	0.000018,	0.000001
0.387500,	0.000018,	0.000001
0.412500,	0.000018,	0.000001
0.437500,	0.000018,	0.000001
0.462500,	0.000018,	0.000001
0.487500,	0.000018,	0.000001
0.512500,	0.000018,	0.000001
0.537500,	0.000018,	0.000001
0.562500,	0.000018,	0.000001
0.587500,	0.000018,	0.000001
0.612500,	0.000018,	0.000001
0.637500,	0.000018,	0.000001
0.662500,	0.000018,	0.000001
0.687500,	0.000018,	0.000001
0.712500,	0.000018,	0.000001
0.737500,	0.000018,	0.000001
0.762500,	0.000018,	0.000001
0.787500,	0.000018,	0.000001
0.812500,	0.000018,	0.000001
0.837500,	0.000018,	0.000001
0.862500,	0.000018,	0.000001
0.887500,	0.000018,	0.000001
0.912500,	0.000018,	0.000001
0.937500,	0.000018,	0.000001
0.962500,	0.000018,	0.000001
0.987500,	0.000018,	0.000001
1.012500,	0.000018,	0.000001
1.037500,	0.000018,	0.000001
1.062500,	0.000018,	0.000001
1.087500,	0.000018,	0.000001
1.112500,	0.000018,	0.000001
1.137500,	0.000018,	0.000001
1.162500,	0.000018,	0.000001
1.187500,	0.000018,	0.000001
1.212500,	0.000018,	0.000001
1.237500,	0.000018,	0.000001
1.262500,	0.000018,	0.000001
1.287500,	0.000018,	0.000001
1.312500,	0.000018,	0.000001
1.337500,	0.000018,	0.000001
1.362500,	0.000018,	0.000001
1.387500,	0.000018,	0.000001
1.412500,	0.000018,	0.000001
1.437500,	0.000018,	0.000001
1.462500,	0.000018,	0.000001
1.487500,	0.000018,	0.000001
1.512500,	0.000018,	0.000001
1.537500,	0.000018,	0.000001
1.562500,	0.000018,	0.000001
1.587500,	0.000018,	0.000001
1.612500,	0.000018,	0.000001
1.637500,	0.000018,	0.000001
1.662500,	0.000018,	0.000001
1.687500,	0.000018,	0.000001
1.712500,	0.000018,	0.000001
1.737500,	0.000018,	0.000001
1.762500,	0.000018,	0.000001
1.787500,	0.000018,	0.000001
1.812500,	0.000018,	0.000001
1.837500,	0.000018,	0.000001
1.862500,	0.000018,	0.000001
1.887500,	0.000018,	0.000001
1.912500,	0.000018,	0.000001
1.937500,	0.000018,	0.000001
1.962500,	0.000018,	0.000001
1.987500,	0.000018,	0.000001
2.012500,	0.000018,	0.000001
2.037500,	0.000018,	0.000001
2.062500,	0.000018,	0.000001
2.087500,	0.000018,	0.000001
2.112500,	0.000018,	0.000001
2.137500,	0.000018,	0.000001
2.162500,	0.000018,	0.000001
2.187500,	0.000018,	0.000001
2.212500,	0.000018,	0.000001
2.237500,	0.000018,	0.000001
2.262500,	0.000018,	0.000001
2.287500,	0.000018,	0.000001
2.312500,	0.000018,	0.000001
2.337500,	0.000018,	0.000001
2.362500,	0.000018,	0.000001
2.387500,	0.000018,	0.000001
2.412500,	0.000018,	0.000001
2.437500,	0.000018,	0.000001
2.462500,	0.000018,	0.000001
2.487500,	0.000018,	0.000001
2.512500,	0.000018,	0.000001
2.537500,	0.000018,	0.000001
2.562500,	0.000018,	0.000001
2.587500,	0.000018,	0.000001
2.612500,	0.000018,	0.000001
2.637500,	0.000018,	0.000001
2.662500,	0.000018,	0.000001
2.687500,	0.000018,	0.000001
2.712500,	0.000018,	0.000001
2.737500,	0.000018,	0.000001
2.762500,	0.000018,	0.000001
2.787500,	0.000018,	0.000001
2.812500,	0.000018,	0.000001
2.837500,	0.000018,	0.000001
2.862500,	0.000018,	0.000001
2.887500,	0.000018,	0.000001
2.912500,	0.000018,	0.000001
2.937500,	0.000018,	0.000001
2.962500,	0.000018,	0.000001
2.987500,	0.000018,	0.000001
3.012500,	0.000018,	0.000001
3.037500,	0.000018,	0.000001
3.062500,	0.000018,	0.000001
3.087500,	0.000018,	0.000001
3.112500,	0.000018,	0.000001
3.137500,	0.000018,	0.000001
3.162500,	0.000018,	0.000001
3.187500,	0.000018,	0.000001
3.212500,	0.000018,	0.000001
3.237500,	0.000018,	0.000001
3.262500,	0.000018,	0.000001
3.287500,	0.000018,	0.000001
3.312500,	0.000018,	0.000001
3.337500,	0.000018,	0.000001
3.362500,	0.000018,	0.000001
3.387500,	0.000018,	0.000001
3.412500,	0.000018,	0.000001
3.437500,	0.000018,	0.000001
3.462500,	0.000018,	0.000001
3.487500,	0.000018,	0.000001
3.512500,	0.000018,	0.000001
3.537500,	0.000018,	0.000001
3.562500,	0.000018,	0.000001
3.587500,	0.000018,	0.000001
3.612500,	0.000018,	0.000001
3.637500,	0.000018,	0.000001
3.662500,	0.000018,	0.000001
3.687500,	0.000018,	0.000001
3.712500,	0.000018,	0.000001
3.737500,	0.000018,	0.000001
3.762500,	0.000018,	0.000001
3.787500,	0.000018,	0.000001
3.812500,	0.000018,	0.000001
3.837500,	0.000018,	0.000001
3.862500,	0.000018,	0.000001
3.887500,	0.000018,	0.000001
3.912500,	0.000018,	0.000001
3.937500,	0.000018,	0.000001
3.962500,	0.000018,	0.000001
3.987500,	0.000018,	0.000001
4.012500,	0.000018,	0.000001
4.037500,	0.000018,	0.000001
4.062500,	0.000018,	0.000001
4.087500,	0.000018,	0.000001
4.112500,	0.000018,	0.000001
4.137500,	0.000018,	0.000001
4.162500,	0.000018,	0.000001
4.187500,	0.000018,	0.000001
4.212500,	0.000018,	0.000001
4.237500,	0.000018,	0.000001
4.262500,	0.000018,	0.000001
4.287500,	0.000018,	0.000001
4.312500,	0.000018,	0.000001
4.337500,	0.000018,	0.000001
4.362500,	0.000018,	0.000001
4.387500,	0.000018,	0.000001
4.412500,	0.000018,	0.000001
4.437500,	0.000018,	0.000001
4.462500,	0.000018,	0.000001
4.487500,	0.000018,	0.000001
4.512500,	0.000018,	0.000001
4.537500,	0.000018,	0.000001
4.562500,	0.000018,	0.000001
4.587500,	0.000018,	0.000001
4.612500,	0.000018,	0.000001
4.637500,	0.000018,	0.000001
4.662500,	0.000018,	0.000001
4.687500,	0.000018,	0.000001
4.712500,	0.000018,	0.000001
4.737500,	0.000018,	0.000001
4.762500,	0.000018,	0.000001
4.787500,	0.000018,	0.000001
4.812500,	0.000018,	0.000001
4.837500,	0.000018,	0.000001
4.862500,	0.000018,	0.000001
4.887500,	0.000018,	0.000001
4.912500,	0.000018,	0.000001
4.937500,	0.000018,	0.000001
4.962500,	0.000018,	0.000001
4.987500,	0.000018,	0.000001
0.012500,	0.000093,	0.000003
0.037500,	0.000093,	0.000003
0.062500,	0.000093,	0.000003
0.087500,	0.000093,	0.000003
0.112500,	0.000093,	0.000003
0.137500,	0.000093,	0.000003
0.162500,	0.000093,	0.000003
0.187500,	0.000093,	0.000003
0.212500,	0.000093,	0.000003
0.237500,	0.000093,	0.000003
0.262500,	0.000093,	0.000003
0.287500,	0.000093,	0.000003
0.312500,	0.000093,	0.000003
0.337500,	0.000093,	0.000003
0.362500,	0.000093,	0.000003
0.387500,	0.000093,	0.000003
0.412500,	0.000093,	0.000003
0.437500,	0.000093,	0.000003
0.462500,	0.000093,	0.000003
0.487500,	0.000093,	0.000003
0.512500,	0.000093,	0.000003
0.537500,	0.000093,	0.000003
0.562500,	0.000093,	0.000003
0.587500,	0.000093,	0.000003
0.612500,	0.000093,	0.000003
0.637500,	0.000093,	0.000003
0.662500,	0.000093,	0.000003
0.687500,	0.000093,	0.000003
0.712500,	0.000093,	0.000003
0.737500,	0.000093,	0.000003
0.762500,	0.000093,	0.000003
0.787500,	0.000093,	0.000003
0.812500,	0.000093,	0.000003
0.837500,	0.000093,	0.000003
0.862500,	0.000093,	0.000003
0.887500,	0.000093,	0.000003
0.912500,	0.000093,	0.000003
0.937500,	0.000093,	0.000003
0.962500,	0.000093,	0.000003
0.987500,	0.000093,	0.000003
1.012500,	0.000093,	0.000003
1.037500,	0.000093,	0.000003
1.062500,	0.000093,	0.000003
1.087500,	0.000093,	0.000003
1.112500,	0.000093,	0.000003
1.137500,	0.000093,	0.000003
1.162500,	0.000093,	0.000003
1.187500,	0.000093,	0.000003
1.212500,	0.000093,	0.000003
1.237500,	0.000093,	0.000003
1.262500,	0.000093,	0.000003
1.287500,	0.000093,	0.000003
1.312500,	0.000093,	0.000003
1.337500,	0.000093,	0.000003
1.362500,	0.000093,	0.000003
1.387500,	0.000093,	0.000003
1.412500,	0.000093,	0.000003
1.437500,	0.000093,	0.000003
1.462500,	0.000093,	0.000003
1.487500,	0.000093,	0.000003
1.512500,	0.000093,	0.000003
1.537500,	0.000093,	0.000003
1.562500,	0.000093,	0.000003
1.587500,	0.000093,	0.000003
1.612500,	0.000093,	0.000003
1.637500,	0.000093,	0.000003
1.662500,	0.000093,	0.000003
1.687500,	0.000093,	0.000003
1.712500,	0.000093,	0.000003
1.737500,	0.000093,	0.000003
1.762500,	0.000093,	0.000003
1.787500,	0.000093,	0.000003
1.812500,	0.000093,	0.000003
1.837500,	0.000093,	0.000003
1.862500,	0.000093,	0.000003
1.887500,	0.000093,	0.000003
1.912500,	0.000093,	0.000003
1.937500,	0.000093,	0.000003
1.962500,	0.000093,	0.000003
1.987500,	0.000093,	0.000003
2.012500,	0.000093,	0.000003
2.037500,	0.000093,	0.000003
2.062500,	0.000093,	0.000003
2.087500,	0.000093,	0.000003
2.112500,	0.000093,	0.000003
2.137500,	0.000093,	0.000003
2.162500,	0.000093,	0.000003
2.187500,	0.000093,	0.000003
2.212500,	0.000093,	0.000003
2.237500,	0.000093,	0.000003
2.262500,	0.000093,	0.000003
2.287500,	0.000093,	0.000003
2.312500,	0.000093,	0.000003
2.337500,	0.000093,	0.000003
2.362500,	0.000093,	0.000003
2.387500,	0.000093,	0.000003
2.412500,	0.000093,	0.000003
2.437500,	0.000093,	0.000003
2.462500,	0.000093,	0.000003
2.487500,	0.000093,	0.000003
2.512500,	0.000093,	0.000003
2.537500,	0.000093,	0.000003
2.562500,	0.000093,	0.000003
2.587500,	0.000093,	0.000003
2.612500,	0.000093,	0.000003
2.637500,	0.000093,	0.000003
2.662500,	0.000093,	0.000003
2.687500,	0.000093,	0.000003
2.712500,	0.000093,	0.000003
2.737500,	0.000093,	0.000003
2.762500,	0.000093,	0.000003
2.787500,	0.000093,	0.000003
2.812500,	0.000093,	0.000003
2.837500,	0.000093,	0.000003
2.862500,	0.000093,	0.000003
2.887500,	0.000093,	0.000003
2.912500,	0.000093,	0.000003
2.937500,	0.000093,	0.000003
2.962500,	0.000093,	0.000003
2.987500,	0.000093,	0.000003
3.012500,	0.000093,	0.000003
3.037500,	0.000093,	0.000003
3.062500,	0.000093,	0.000003
3.087500,	0.000093,	0.000003
3.112500,	0.000093,	0.000003
3.137500,	0.000093,	0.000003
3.162500,	0.000093,	0.000003
3.187500,	0.000093,	0.000003
3.212500,	0.000093,	0.000003
3.237500,	0.000093,	0.000003
3.262500,	0.000093,	0.000003
3.287500,	0.000093,	0.000003
3.312500,	0.000093,	0.000003
3.337500,	0.000093,	0.000003
3.362500,	0.000093,	0.000003
3.387500,	0.000093,	0.000003
3.412500,	0.000093,	0.000003
3.437500,	0.000093,	0.000003
3.462500,	0.000093,	0.000003
3.487500,	0.000093,	0.000003
3.512500,	0.000093,	0.000003
3.537500,	0.000093,	0.000003
3.562500,	0.000093,	0.000003
3.587500,	0.000093,	0.000003
3.612500,	0.000093,	0.000003
3.637500,	0.000093,	0.000003
3.662500,	0.000093,	0.000003
3.687500,	0.000093,	0.000003
3.712500,	0.000093,	0.000003
3.737500,	0.000093,	0.000003
3.762500,	0.000093,	0.000003
3.787500,	0.000093,	0.000003
3.812500,	0.000093,	0.000003
3.837500,	0.000093,	0.000003
3.862500,	0.000093,	0.000003
3.887500,	0.000093,	0.000003
3.912500,	0.000093,	0.000003
3.937500,	0.000093,	0.000003
3.962500,	0.000093,	0.000003
3.987500,	0.000093,	0.000003
4.012500,	0.000093,	0.000003
4.037500,	0.000093,	0.000003
4.062500,	0.000093,	0.000003
4.087500,	0.000093,	0.000003
4.112500,	0.000093,	0.000003
4.137500,	0.000093,	0.000003
4.162500,	0.000093,	0.000003
4.187500,	0.000093,	0.000003
4.212500,	0.000093,	0.000003
4.237500,	0.000093,	0.000003
4.262500,	0.000093,	0.000003
4.287500,	0.000093,	0.000003
4.312500,	0.000093,	0.000003
4.337500,	0.000093,	0.000003
4.362500,	0.000093,	0.000003
4.387500,	0.000093,	0.000003
4.412500,	0.000093,	0.000003
4.437500,	0.000093,	0.000003
4.462500,	0.000093,	0.000003
4.487500,	0.000093,	0.000003
4.512500,	0.000093,	0.000003
4.537500,	0.000093,	0.000003
4.562500,	0.000093,	0.000003
4.587500,	0.000093,	0.000003
4.612500,	0.000093,	0.000003
4.637500,	0.000093,	0.000003
4.662500,	0.000093,	0.000003
4.687500,	0.000093,	0.000003
4.712500,	0.000093,	0.000003
4.737500,	0.000093,	0.000003
4.762500,	0.000093,	0.000003
4.787500,	0.000093,	0.000003
4.812500,	0.000093,	0.000003
4.837500,	0.000093,	0.000003
4.862500,	0.000093,	0.000003
4.887500,	0.000093,	0.000003
4.912500,	0.000093,	0.000003
4.937500,	0.000093,	0.000003
4.962500,	0.000093,	0.000003
4.987500,	0.000093,	0.000003
0.012500,	0.000242,	0.000005
0.037500,	0.000242,	0.000005
0.062500,	0.000242,	0.000005
0.087500,	0.000242,	0.000005
0.112500,	0.000242,	0.000005
0.137500,	0.000242,	0.000005
0.162500,	0.000242,	0.000005
0.187500,	0.000242,	0.000005
0.212500,	0.000242,	0.000005
0.237500,	0.000242,	0.000005
0.262500,	0.000242,	0.000005
0.287500,	0.000242,	0.000005
0.312500,	0.000242,	0.000005
0.337500,	0.000242,	0.000005
0.362500,	0.000242,	0.000005
0.387500,	0.000242,	0.000005
0.412500,	0.000242,	0.000005
0.437500,	0.000242,	0.000005
0.462500,	0.000242,	0.000005
0.487500,	0.000242,	0.000005
0.512500,	0.000242,	0.000005
0.537500,	0.000242,	0.000005
0.562500,	0.000242,	0.000005
0.587500,	0.000242,	0.000005
0.612500,	0.000242,	0.000005
0.637500,	0.000242,	0.000005
0.662500,	0.000242,	0.000005
0.687500,	0.000242,	0.000005
0.712500,	0.000242,	0.000005
0.737500,	0.000242,	0.000005
0.762500,	0.000242,	0.000005
0.787500,	0.000242,	0.000005
0.812500,	0.000242,	0.000005
0.837500,	0.000242,	0.000005
0.862500,	0.000242,	0.000005
0.887500,	0.000242,	0.000005
0.912500,	0.000242,	0.000005
0.937500,	0.000242,	0.000005
0.962500,	0.000242,	0.000005
0.987500,	0.000242,	0.000005
1.012500,	0.000242,	0.000005
1.037500,	0.000242,	0.000005
1.062500,	0.000242,	0.000005
1.087500,	0.000242,	0.000005
1.112500,	0.000242,	0.000005
1.137500,	0.000242,	0.000005
1.162500,	0.000242,	0.000005
1.187500,	0.000242,	0.000005
1.212500,	0.000242,	0.000005
1.237500,	0.000242,	0.000005
1.262500,	0.000242,	0.000005
1.287500,	0.000242,	0.000005
1.312500,	0.000242,	0.000005
1.337500,	0.000242,	0.000005
1.362500,	0.000242,	0.000005
1.387500,	0.000242,	0.000005
1.412500,	0.000242,	0.000005
1.437500,	0.000242,	0.000005
1.462500,	0.000242,	0.000005
1.487500,	0.000242,	0.000005
1.512500,	0.000242,	0.000005
1.537500,	0.000242,	0.000005
1.562500,	0.000242,	0.000005
1.587500,	0.000242,	0.000005
1.612500,	0.000242,	0.000005
1.637500,	0.000242,	0.000005
1.662500,	0.000242,	0.000005
1.687500,	0.000242,	0.000005
1.712500,	0.000242,	0.000005
1.737500,	0.000242,	0.000005
1.762500,	0.000242,	0.000005
1.787500,	0.000242,	0.000005
1.812500,	0.000242,	0.000005
1.837500,	0.000242,	0.000005
1.862500,	0.000242,	0.000005
1.887500,	0.000242,	0.000005
1.912500,	0.000242,	0.000005
1.937500,	0.000242,	0.000005
1.962500,	0.000242,	0.000005
1.987500,	0.000242,	0.000005
2.012500,	0.000242,	0.000005
2.037500,	0.000242,	0.000005
2.062500,	0.000242,	0.000005
2.087500,	0.000242,	0.000005
2.112500,	0.000242,	0.000005
2.137500,	0.000242,	0.000005
2.162500,	0.000242,	0.000005
2.187500,	0.000242,	0.000005
2.212500,	0.000242,	0.000005
2.237500,	0.000242,	0.000005
2.262500,	0.000242,	0.000005
2.287500,	0.000242,	0.000005
2.312500,	0.000242,	0.000005
2.337500,	0.000242,	0.000005
2.362500,	0.000242,	0.000005
2.387500,	0.000242,	0.000005
2.412500,	0.000242,	0.000005
2.437500,	0.000242,	0.000005
2.462500,	0.000242,	0.000005
2.487500,	0.000242,	0.000005
2.512500,	0.000242,	0.000005
2.537500,	0.000242,	0.000005
2.562500,	0.000242,	0.000005
2.587500,	0.000242,	0.000005
2.612500,	0.000242,	0.000005
2.637500,	0.000242,	0.000005
2.662500,	0.000242,	0.000005
2.687500,	0.000242,	0.000005
2.712500,	0.000242,	0.000005
2.737500,	0.000242,	0.000005
2.762500,	0.000242,	0.000005
2.787500,	0.000242,	0.000005
2.812500,	0.000242,	0.000005
2.837500,	0.000242,	0.000005
2.862500,	0.000242,	0.000005
2.887500,	0.000242,	0.000005
2.912500,	0.000242,	0.000005
2.937500,	0.000242,	0.000005
2.962500,	0.000242,	0.000005
2.987500,	0.000242,	0.000005
3.012500,	0.000242,	0.000005
3.037500,	0.000242,	0.000005
3.062500,	0.000242,	0.000005
3.087500,	0.000242,	0.000005
3.112500,	0.000242,	0.000005
3.137500,	0.000242,	0.000005
3.162500,	0.000242,	0.000005
3.187500,	0.000242,	0.000005
3.212500,	0.000242,	0.000005
3.237500,	0.000242,	0.000005
3.262500,	0.000242,	0.000005
3.287500,	0.000242,	0.000005
3.312500,	0.000242,	0.000005
3.337500,	0.000242,	0.000005
3.362500,	0.000242,	0.000005
3.387500,	0.000242,	0.000005
3.412500,	0.000242,	0.000005
3.437500,	0.000242,	0.000005
3.462500,	0.000242,	0.000005
3.487500,	0.000242,	0.000005
3.512500,	0.000242,	0.000005
3.537500,	0.000242,	0.000005
3.562500,	0.000242,	0.000005
3.587500,	0.000242,	0.000005
3.612500,	0.000242,	0.000005
3.637500,	0.000242,	0.000005
3.662500,	0.000242,	0.000005
3.687500,	0.000242,	0.000005
3.712500,	0.000242,	0.000005
3.737500,	0.000242,	0.000005
3.762500,	0.000242,	0.000005
3.787500,	0.000242,	0.000005
3.812500,	0.000242,	0.000005
3.837500,	0.000242,	0.000005
3.862500,	0.000242,	0.000005
3.887500,	0.000242,	0.000005
3.912500,	0.000242,	0.000005
3.937500,	0.000242,	0.000005
3.962500,	0.000242,	0.000005
3.987500,	0.000242,	0.000005
4.012500,	0.000242,	0.000005
4.037500,	0.000242,	0.000005
4.062500,	0.000242,	0.000005
4.087500,	0.000242,	0.000005
4.112500,	0.000242,	0.000005
4.137500,	0.000242,	0.000005
4.162500,	0.000242,	0.000005
4.187500,	0.000242,	0.000005
4.212500,	0.000242,	0.000005
4.237500,	0.000242,	0.000005
4.262500,	0.000242,	0.000005
4.287500,	0.000242,	0.000005
4.312500,	0.000242,	0.000005
4.337500,	0.000242,	0.000005
4.362500,	0.000242,	0.000005
4.387500,	0.000242,	0.000005
4.412500,	0.000242,	0.000005
4.437500,	0.000242,	0.000005
4.462500,	0.000242,	0.000005
4.487500,	0.000242,	0.000005
4.512500,	0.000242,	0.000005
4.537500,	0.000242,	0.000005
4.562500,	0.000242,	0.000005
4.587500,	0.000242,	0.000005
4.612500,	0.000242,	0.000005
4.637500,	0.000242,	0.000005
4.662500,	0.000242,	0.000005
4.687500,	0.000242,	0.000005
4.712500,	0.000242,	0.000005
4.737500,	0.000242,	0.000005
4.762500,	0.000242,	0.000005
4.787500,	0.000242,	0.000005
4.812500,	0.000242,	0.000005
4.837500,	0.000242,	0.000005
4.862500,	0.000242,	0.000005
4.887500,	0.000242,	0.000005
4.912500,	0.000242,	0.000005
4.937500,	0.000242,	0.000005
4.962500,	0.000242,	0.000005
4.987500,	0.000242,	0.000005
0.012500,	0.000467,	0.000007
0.037500,	0.000467,	0.000007
0.062500,	0.000467,	0.000007
0.087500,	0.000467,	0.000007
0.112500,	0.000467,	0.000007
0.137500,	0.000467,	0.000007
0.162500,	0.000467,	0.000007
0.187500,	0.000467,	0.000007
0.212500,	0.000467,	0.000007
0.237500,	0.000467,	0.000007
0.262500,	0.000467,	0.000007
0.287500,	0.000467,	0.000007
0.312500,	0.000467,	0.000007
0.337500,	0.000467,	0.000007
0.362500,	0.000467,	0.000007
0.387500,	0.000467,	0.000007
0.412500,	0.000467,	0.000007
0.437500,	0.000467,	0.000007
0.462500,	0.000467,	0.000007
0.487500,	0.000467,	0.000007
0.512500,	0.000467,	0.000007
0.537500,	0.000467,	0.000007
0.562500,	0.000467,	0.000007
0.587500,	0.000467,	0.000007
0.612500,	0.000467,	0.000007
0.637500,	0.000467,	0.000007
0.662500,	0.000467,	0.000007
0.687500,	0.000467,	0.000007
0.712500,	0.000467,	0.000007
0.737500,	0.000467,	0.000007
0.762500,	0.000467,	0.000007
0.787500,	0.000467,	0.000007
0.812500,	0.000467,	0.000007
0.837500,	0.000467,	0.000007
0.862500,	0.000467,	0.000007
0.887500,	0.000467,	0.000007
0.912500,	0.000467,	0.000007
0.937500,	0.000467,	0.000007
0.962500,	0.000467,	0.000007
0.987500,	0.000467,	0.000007
1.012500,	0.000467,	0.000007
1.037500,	0.000467,	0.000007
1.062500,	0.000467,	0.000007
1.087500,	0.000467,	0.000007
1.112500,	0.000467,	0.000007
1.137500,	0.000467,	0.000007
1.162500,	0.000467,	0.000007
1.187500,	0.000467,	0.000007
1.212500,	0.000467,	0.000007
1.237500,	0.000467,	0.000007
1.262500,	0.000467,	0.000007
1.287500,	0.000467,	0.000007
1.312500,	0.000467,	0.000007
1.337500,	0.000467,	0.000007
1.362500,	0.000467,	0.000007
1.387500,	0.000467,	0.000007
1.412500,	0.000467,	0.000007
1.437500,	0.000467,	0.000007
1.462500,	0.000467,	0.000007
1.487500,	0.000467,	0.000007
1.512500,	0.000467,	0.000007
1.537500,	0.000467,	0.000007
1.562500,	0.000467,	0.000007
1.587500,	0.000467,	0.000007
1.612500,	0.000467,	0.000007
1.637500,	0.000467,	0.000007
1.662500,	0.000467,	0.000007
1.687500,	0.000467,	0.000007
1.712500,	0.000467,	0.000007
1.737500,	0.000467,	0.000007
1.762500,	0.000467,	0.000007
1.787500,	0.000467,	0.000007
1.812500,	0.000467,	0.000007
1.837500,	0.000467,	0.000007
1.862500,	0.000467,	0.000007
1.887500,	0.000467,	0.000007
1.912500,	0.000467,	0.000007
1.937500,	0.000467,	0.000007
1.962500,	0.000467,	0.000007
1.987500,	0.000467,	0.000007
2.012500,	0.000467,	0.000007
2.037500,	0.000467,	0.000007
2.062500,	0.000467,	0.000007
2.087500,	0.000467,	0.000007
2.112500,	0.000467,	0.000007
2.137500,	0.000467,	0.000007
2.162500,	0.000467,	0.000007
2.187500,	0.000467,	0.000007
2.212500,	0.000467,	0.000007
2.237500,	0.000467,	0.000007
2.262500,	0.000467,	0.000007
2.287500,	0.000467,	0.000007
2.312500,	0.000467,	0.000007
2.337500,	0.000467,	0.000007
2.362500,	0.000467,	0.000007
2.387500,	0.000467,	0.000007
2.412500,	0.000467,	0.000007
2.437500,	0.000467,	0.000007
2.462500,	0.000467,	0.000007
2.487500,	0.000467,	0.000007
2.512500,	0.000467,	0.000007
2.537500,	0.000467,	0.000007
2.562500,	0.000467,	0.000007
2.587500,	0.000467,	0.000007
2.612500,	0.000467,	0.000007
2.637500,	0.000467,	0.000007
2.662500,	0.000467,	0.000007
2.687500,	0.000467,	0.000007
2.712500,	0.000467,	0.000007
2.737500,	0.000467,	0.000007
2.762500,	0.000467,	0.000007
2.787500,	0.000467,	0.000007
2.812500,	0.000467,	0.000007
2.837500,	0.000467,	0.000007
2.862500,	0.000467,	0.000007
2.887500,	0.000467,	0.000007
2.912500,	0.000467,	0.000007
2.937500,	0.000467,	0.000007
2.962500,	0.000467,	0.000007
2.987500,	0.000467,	0.000007
3.012500,	0.000467,	0.000007
3.037500,	0.000467,	0.000007
3.062500,	0.000467,	0.000007
3.087500,	0.000467,	0.000007
3.112500,	0.000467,	0.000007
3.137500,	0.000467,	0.000007
3.162500,	0.000467,	0.000007
3.187500,	0.000467,	0.000007
3.212500,	0.000467,	0.000007
3.237500,	0.000467,	0.000007
3.262500,	0.000467,	0.000007
3.287500,	0.000467,	0.000007
3.312500,	0.000467,	0.000007
3.337500,	0.000467,	0.000007
3.362500,	0.000467,	0.000007
3.387500,	0.000467,	0.000007
3.412500,	0.000467,	0.000007
3.437500,	0.000467,	0.000007
3.462500,	0.000467,	0.000007
3.487500,	0.000467,	0.000007
3.512500,	0.000467,	0.000007
3.537500,	0.000467,	0.000007
3.562500,	0.000467,	0.000007
3.587500,	0.000467,	0.000007
3.612500,	0.000467,	0.000007
3.637500,	0.000467,	0.000007
3.662500,	0.000467,	0.000007
3.687500,	0.000467,	0.000007
3.712500,	0.000467,	0.000007
3.737500,	0.000467,	0.000007
3.762500,	0.000467,	0.000007
3.787500,	0.000467,	0.000007
3.812500,	0.000467,	0.000007
3.837500,	0.000467,	0.000007
3.862500,	0.000467,	0.000007
3.887500,	0.000467,	0.000007
3.912500,	0.000467,	0.000007
3.937500,	0.000467,	0.000007
3.962500,	0.000467,	0.000007
3.987500,	0.000467,	0.000007
4.012500,	0.000467,	0.000007
4.037500,	0.000467,	0.000007
4.062500,	0.000467,	0.000007
4.087500,	0.000467,	0.000007
4.112500,	0.000467,	0.000007
4.137500,	0.000467,	0.000007
4.162500,	0.000467,	0.000007
4.187500,	0.000467,	0.000007
4.212500,	0.000467,	0.000007
4.237500,	0.000467,	0.000007
4.262500,	0.000467,	0.000007
4.287500,	0.000467,	0.000007
4.312500,	0.000467,	0.000007
4.337500,	0.000467,	0.000007
4.362500,	0.000467,	0.000007
4.387500,	0.000467,	0.000007
4.412500,	0.000467,	0.000007
4.437500,	0.000467,	0.000007
4.462500,	0.000467,	0.000007
4.487500,	0.000467,	0.000007
4.512500,	0.000467,	0.000007
4.537500,	0.000467,	0.000007
4.562500,	0.000467,	0.000007
4.587500,	0.000467,	0.000007
4.612500,	0.000467,	0.000007
4.637500,	0.000467,	0.000007
4.662500,	0.000467,	0.000007
4.687500,	0.000467,	0.000007
4.712500,	0.000467,	0.000007
4.737500,	0.000467,	0.000007
4.762500,	0.000467,	0.000007
4.787500,	0.000467,	0.000007
4.812500,	0.000467,	0.000007
4.837500,	0.000467,	0.000007
4.862500,	0.000467,	0.000007
4.887500,	0.000467,	0.000007
4.912500,	0.000467,	0.000007
4.937500,	0.000467,	0.000007
4.962500,	0.000467,	0.000007
4.987500,	0.000467,	0.000007
0.012500,	0.000765,	0.000008
0.037500,	0.000765,	0.000008
0.062500,	0.000765,	0.000008
0.087500,	0.000765,	0.000008
0.112500,	0.000765,	0.000008
0.137500,	0.000765,	0.000008
0.162500,	0.000765,	0.000008
0.187500,	0.000765,	0.000008
0.212500,	0.000765,	0.000008
0.237500,	0.000765,	0.000008
0.262500,	0.000765,	0.000008
0.287500,	0.000765,	0.000008
0.312500,	0.000765,	0.000008
0.337500,	0.000765,	0.000008
0.362500,	0.000765,	0.000008
0.387500,	0.000765,	0.000008
0.412500,	0.000765,	0.000008
0.437500,	0.000765,	0.000008
0.462500,	0.000765,	0.000008
0.487500,	0.000765,	0.000008
0.512500,	0.000765,	0.000008
0.537500,	0.000765,	0.000008
0.562500,	0.000765,	0.000008
0.587500,	0.000765,	0.000008
0.612500,	0.000765,	0.000008
0.637500,	0.000765,	0.000008
0.662500,	0.000765,	0.000008
0.687500,	0.000765,	0.000008
0.712500,	0.000765,	0.000008
0.737500,	0.000765,	0.000008
0.762500,	0.000765,	0.000008
0.787500,	0.000765,	0.000008
0.812500,	0.000765,	0.000008
0.837500,	0.000765,	0.000008
0.862500,	0.000765,	0.000008
0.887500,	0.000765,	0.000008
0.912500,	0.000765,	0.000008
0.937500,	0.000765,	0.000008
0.962500,	0.000765,	0.000008
0.987500,	0.000765,	0.000008
1.012500,	0.000765,	0.000008
1.037500,	0.000765,	0.000008
1.062500,	0.000765,	0.000008
1.087500,	0.000765,	0.000008
1.112500,	0.000765,	0.000008
1.137500,	0.000765,	0.000008
1.162500,	0.000765,	0.000008
1.187500,	0.000765,	0.000008
1.212500,	0.000765,	0.000008
1.237500,	0.000765,	0.000008
1.262500,	0.000765,	0.000008
1.287500,	0.000765,	0.000008
1.312500,	0.000765,	0.000008
1.337500,	0.000765,	0.000008
1.362500,	0.000765,	0.000008
1.387500,	0.000765,	0.000008
1.412500,	0.000765,	0.000008
1.437500,	0.000765,	0.000008
1.462500,	0.000765,	0.000008
1.487500,	0.000765,	0.000008
1.512500,	0.000765,	0.000008
1.537500,	0.000765,	0.000008
1.562500,	0.000765,	0.000008
1.587500,	0.000765,	0.000008
1.612500,	0.000765,	0.000008
1.637500,	0.000765,	0.000008
1.662500,	0.000765,	0.000008
1.687500,	0.000765,	0.000008
1.712500,	0.000765,	0.000008
1.737500,	0.000765,	0.000008
1.762500,	0.000765,	0.000008
1.787500,	0.000765,	0.000008
1.812500,	0.000765,	0.000008
1.837500,	0.000765,	0.000008
1.862500,	0.000765,	0.000008
1.887500,	0.000765,	0.000008
1.912500,	0.000765,	0.000008
1.937500,	0.000765,	0.000008
1.962500,	0.000765,	0.000008
1.987500,	0.000765,	0.000008
2.012500,	0.000765,	0.000008
2.037500,	0.000765,	0.000008
2.062500,	0.000765,	0.000008
2.087500,	0.000765,	0.000008
2.112500,	0.000765,	0.000008
2.137500,	0.000765,	0.000008
2.162500,	0.000765,	0.000008
2.187500,	0.000765,	0.000008
2.212500,	0.000765,	0.000008
2.237500,	0.000765,	0.000008
2.262500,	0.000765,	0.000008
2.287500,	0.000765,	0.000008
2.312500,	0.000765,	0.000008
2.337500,	0.000765,	0.000008
2.362500,	0.000765,	0.000008
2.387500,	0.000765,	0.000008
2.412500,	0.000765,	0.000008
2.437500,	0.000765,	0.000008
2.462500,	0.000765,	0.000008
2.487500,	0.000765,	0.000008
2.512500,	0.000765,	0.000008
2.537500,	0.000765,	0.000008
2.562500,	0.000765,	0.000008
2.587500,	0.000765,	0.000008
2.612500,	0.000765,	0.000008
2.637500,	0.000765,	0.000008
2.662500,	0.000765,	0.000008
2.687500,	0.000765,	0.000008
2.712500,	0.000765,	0.000008
2.737500,	0.000765,	0.000008
2.762500,	0.000765,	0.000008
2.787500,	0.000765,	0.000008
2.812500,	0.000765,	0.000008
2.837500,	0.000765,	0.000008
2.862500,	0.000765,	0.000008
2.887500,	0.000765,	0.000008
2.912500,	0.000765,	0.000008
2.937500,	0.000765,	0.000008
2.962500,	0.000765,	0.000008
2.987500,	0.000765,	0.000008
3.012500,	0.000765,	0.000008
3.037500,	0.000765,	0.000008
3.062500,	0.000765,	0.000008
3.087500,	0.000765,	0.000008
3.112500,	0.000765,	0.000008
3.137500,	0.000765,	0.000008
3.162500,	0.000765,	0.000008
3.187500,	0.000765,	0.000008
3.212500,	0.000765,	0.000008
3.237500,	0.000765,	0.000008
3.262500,	0.000765,	0.000008
3.287500,	0.000765,	0.000008
3.312500,	0.000765,	0.000008
3.337500,	0.000765,	0.000008
3.362500,	0.000765,	0.000008
3.387500,	0.000765,	0.000008
3.412500,	0.000765,	0.000008
3.437500,	0.000765,	0.000008
3.462500,	0.000765,	0.000008
3.487500,	0.000765,	0.000008
3.512500,	0.000765,	0.000008
3.537500,	0.000765,	0.000008
3.562500,	0.000765,	0.000008
3.587500,	0.000765,	0.000008
3.612500,	0.000765,	0.000008
3.637500,	0.000765,	0.000008
3.662500,	0.000765,	0.000008
3.687500,	0.000765,	0.000008
3.712500,	0.000765,	0.000008
3.737500,	0.000765,	0.000008
3.762500,	0.000765,	0.000008
3.787500,	0.000765,	0.000008
3.812500,	0.000765,	0.000008
3.837500,	0.000765,	0.000008
3.862500,	0.000765,	0.000008
3.887500,	0.000765,	0.000008
3.912500,	0.000765,	0.000008
3.937500,	0.000765,	0.000008
3.962500,	0.000765,	0.000008
3.987500,	0.000765,	0.000008
4.012500,	0.000765,	0.000008
4.037500,	0.000765,	0.000008
4.062500,	0.000765,	0.000008
4.087500,	0.000765,	0.000008
4.112500,	0.000765,	0.000008
4.137500,	0.000765,	0.000008
4.162500,	0.000765,	0.000008
4.187500,	0.000765,	0.000008
4.212500,	0.000765,	0.000008
4.237500,	0.000765,	0.000008
4.262500,	0.000765,	0.000008
4.287500,	0.000765,	0.000008
4.312500,	0.000765,	0.000008
4.337500,	0.000765,	0.000008
4.362500,	0.000765,	0.000008
4.387500,	0.000765,	0.000008
4.412500,	0.000765,	0.000008
4.437500,	0.000765,	0.000008
4.462500,	0.000765,	0.000008
4.487500,	0.000765,	0.000008
4.512500,	0.000765,	0.000008
4.537500,	0.000765,	0.000008
4.562500,	0.000765,	0.000008
4.587500,	0.000765,	0.000008
4.612500,	0.000765,	0.000008
4.637500,	0.000765,	0.000008
4.662500,	0.000765,	0.000008
4.687500,	0.000765,	0.000008
4.712500,	0.000765,	0.000008
4.737500,	0.000765,	0.000008
4.762500,	0.000765,	0.000008
4.787500,	0.000765,	0.000008
4.812500,	0.000765,	0.000008
4.837500,	0.000765,	0.000008
4.862500,	0.000765,	0.000008
4.887500,	0.000765,	0.000008
4.912500,	0.000765,	0.000008
4.937500,	0.000765,	0.000008
4.962500,	0.000765,	0.000008
4.987500,	0.000765,	0.000008
0.012500,	0.001138,	0.000010
0.037500,	0.001138,	0.000010
0.062500,	0.001138,	0.000010
0.087500,	0.001138,	0.000010
0.112500,	0.001138,	0.000010
0.137500,	0.001138,	0.000010
0.162500,	0.001138,	0.000010
0.187500,	0.001138,	0.000010
0.212500,	0.001138,	0.000010
0.237500,	0.001138,	0.000010
0.262500,	0.001138,	0.000010
0.287500,	0.001138,	0.000010
0.312500,	0.001138,	0.000010
0.337500,	0.001138,	0.000010
0.362500,	0.001138,	0.000010
0.387500,	0.001138,	0.000010
0.412500,	0.001138,	0.000010
0.437500,	0.001138,	0.000010
0.462500,	0.001138,	0.000010
0.487500,	0.001138,	0.000010
0.512500,	0.001138,	0.000010
0.537500,	0.001138,	0.000010
0.562500,	0.001138,	0.000010
0.587500,	0.001138,	0.000010
0.612500,	0.001138,	0.000010
0.637500,	0.001138,	0.000010
0.662500,	0.001138,	0.000010
0.687500,	0.001138,	0.000010
0.712500,	0.001138,	0.000010
0.737500,	0.001138,	0.000010
0.762500,	0.001138,	0.000010