TITLE = "MeshVolumeStats"
VARIABLES = "X", "Y", "VOL"
ZONE I=200, J=200, DATAPACKING=POINT
0.003750,	0.101016,	0.000022
0.011250,	0.101016,	0.000022
0.018750,	0.101016,	0.000022
0.026250,	0.101016,	0.000022
0.033750,	0.101016,	0.000022
0.041250,	0.101016,	0.000022
0.048750,	0.101016,	0.000022
0.056250,	0.101016,	0.000022
0.063750,	0.101016,	0.000022
0.071250,	0.101016,	0.000022
0.078750,	0.101016,	0.000022
0.086250,	0.101016,	0.000022
0.093750,	0.101016,	0.000022
0.101250,	0.101016,	0.000022
0.108750,	0.101016,	0.000022
0.116250,	0.101016,	0.000022
0.123750,	0.101016,	0.000022
0.131250,	0.101016,	0.000022
0.138750,	0.101016,	0.000022
0.146250,	0.101016,	0.000022
0.153750,	0.101016,	0.000022
0.161250,	0.101016,	0.000022
0.168750,	0.101016,	0.000022
0.176250,	0.101016,	0.000022
0.183750,	0.101016,	0.000022
0.191250,	0.101016,	0.000022
0.198750,	0.101016,	0.000022
0.206250,	0.101016,	0.000022
0.213750,	0.101016,	0.000022
0.221250,	0.101016,	0.000022
0.228750,	0.101016,	0.000022
0.236250,	0.101016,	0.000022
0.243750,	0.101016,	0.000022
0.251250,	0.101016,	0.000022
0.258750,	0.101016,	0.000022
0.266250,	0.101016,	0.000022
0.273750,	0.101016,	0.000022
0.281250,	0.101016,	0.000022
0.288750,	0.101016,	0.000022
0.296250,	0.101016,	0.000022
0.303750,	0.101016,	0.000022
0.311250,	0.101016,	0.000022
0.318750,	0.101016,	0.000022
0.326250,	0.101016,	0.000022
0.333750,	0.101016,	0.000022
0.341250,	0.101016,	0.000022
0.348750,	0.101016,	0.000022
0.356250,	0.101016,	0.000022
0.363750,	0.101016,	0.000022
0.371250,	0.101016,	0.000022
0.378750,	0.101016,	0.000022
0.386250,	0.101016,	0.000022
0.393750,	0.101016,	0.000022
0.401250,	0.101016,	0.000022
0.408750,	0.101016,	0.000022
0.416250,	0.101016,	0.000022
0.423750,	0.101016,	0.000022
0.431250,	0.101016,	0.000022
0.438750,	0.101016,	0.000022
0.446250,	0.101016,	0.000022
0.453750,	0.101016,	0.000022
0.461250,	0.101016,	0.000022
0.468750,	0.101016,	0.000022
0.476250,	0.101016,	0.000022
0.483750,	0.101016,	0.000022
0.491250,	0.101016,	0.000022
0.498750,	0.101907,	0.000022
0.506250,	0.105467,	0.000022
0.513750,	0.110808,	0.000022
0.521250,	0.116149,	0.000021
0.528750,	0.121490,	0.000021
0.536250,	0.126831,	0.000021
0.543750,	0.132172,	0.000021
0.551250,	0.137512,	0.000021
0.558750,	0.142853,	0.000021
0.566250,	0.148194,	0.000021
0.573750,	0.153535,	0.000021
0.581250,	0.158876,	0.000021
0.588750,	0.164217,	0.000021
0.596250,	0.169558,	0.000021
0.603750,	0.174899,	0.000021
0.611250,	0.180240,	0.000021
0.618750,	0.185580,	0.000021
0.626250,	0.190921,	0.000021
0.633750,	0.196263,	0.000021
0.641250,	0.201603,	0.000020
0.648750,	0.206944,	0.000020
0.656250,	0.212285,	0.000020
0.663750,	0.217626,	0.000020
0.671250,	0.222967,	0.000020
0.678750,	0.228308,	0.000020
0.686250,	0.233649,	0.000020
0.693750,	0.238989,	0.000020
0.701250,	0.244330,	0.000020
0.708750,	0.249671,	0.000020
0.716250,	0.255012,	0.000020
0.723750,	0.260353,	0.000020
0.731250,	0.265694,	0.000020
0.738750,	0.271035,	0.000020
0.746250,	0.276375,	0.000020
0.753750,	0.281717,	0.000020
0.761250,	0.287057,	0.000020
0.768750,	0.292399,	0.000019
0.776250,	0.297739,	0.000019
0.783750,	0.303080,	0.000019
0.791250,	0.308421,	0.000019
0.798750,	0.313762,	0.000019
0.806250,	0.319103,	0.000019
0.813750,	0.324444,	0.000019
0.821250,	0.329785,	0.000019
0.828750,	0.335125,	0.000019
0.836250,	0.340466,	0.000019
0.843750,	0.345807,	0.000019
0.851250,	0.351148,	0.000019
0.858750,	0.356489,	0.000019
0.866250,	0.361830,	0.000019
0.873750,	0.367171,	0.000019
0.881250,	0.372511,	0.000019
0.888750,	0.377853,	0.000018
0.896250,	0.383193,	0.000018
0.903750,	0.388535,	0.000018
0.911250,	0.393876,	0.000018
0.918750,	0.399216,	0.000018
0.926250,	0.404557,	0.000018
0.933750,	0.409898,	0.000018
0.941250,	0.415239,	0.000018
0.948750,	0.420580,	0.000018
0.956250,	0.425921,	0.000018
0.963750,	0.431262,	0.000018
0.971250,	0.436602,	0.000018
0.978750,	0.441943,	0.000018
0.986250,	0.447284,	0.000018
0.993750,	0.452625,	0.000018
1.001250,	0.457966,	0.000018
1.008750,	0.463307,	0.000018
1.016250,	0.468647,	0.000017
1.023750,	0.473989,	0.000017
1.031250,	0.479330,	0.000017
1.038750,	0.484670,	0.000017
1.046250,	0.490012,	0.000017
1.053750,	0.495352,	0.000017
1.061250,	0.500693,	0.000017
1.068750,	0.506034,	0.000017
1.076250,	0.511375,	0.000017
1.083750,	0.516716,	0.000017
1.091250,	0.522057,	0.000017
1.098750,	0.527398,	0.000017
1.106250,	0.532739,	0.000017
1.113750,	0.538080,	0.000017
1.121250,	0.543420,	0.000017
1.128750,	0.548761,	0.000017
1.136250,	0.554102,	0.000016
1.143750,	0.559443,	0.000016
1.151250,	0.564783,	0.000016
1.158750,	0.570125,	0.000016
1.166250,	0.575465,	0.000016
1.173750,	0.580807,	0.000016
1.181250,	0.586148,	0.000016
1.188750,	0.591488,	0.000016
1.196250,	0.596829,	0.000016
1.203750,	0.602170,	0.000016
1.211250,	0.607511,	0.000016
1.218750,	0.612852,	0.000016
1.226250,	0.618193,	0.000016
1.233750,	0.623534,	0.000016
1.241250,	0.628875,	0.000016
1.248750,	0.634216,	0.000016
1.256250,	0.639556,	0.000015
1.263750,	0.644897,	0.000015
1.271250,	0.650238,	0.000015
1.278750,	0.655579,	0.000015
1.286250,	0.660919,	0.000015
1.293750,	0.666260,	0.000015
1.301250,	0.671601,	0.000015
1.308750,	0.676943,	0.000015
1.316250,	0.682284,	0.000015
1.323750,	0.687624,	0.000015
1.331250,	0.692965,	0.000015
1.338750,	0.698306,	0.000015
1.346250,	0.703647,	0.000015
1.353750,	0.708988,	0.000015
1.361250,	0.714329,	0.000015
1.368750,	0.719670,	0.000015
1.376250,	0.725011,	0.000015
1.383750,	0.730352,	0.000014
1.391250,	0.735692,	0.000014
1.398750,	0.741034,	0.000014
1.406250,	0.746374,	0.000014
1.413750,	0.751715,	0.000014
1.421250,	0.757055,	0.000014
1.428750,	0.762396,	0.000014
1.436250,	0.767737,	0.000014
1.443750,	0.773079,	0.000014
1.451250,	0.778420,	0.000014
1.458750,	0.783760,	0.000014
1.466250,	0.789101,	0.000014
1.473750,	0.794442,	0.000014
1.481250,	0.799783,	0.000014
1.488750,	0.805124,	0.000014
1.496250,	0.810465,	0.000014
0.003750,	0.103941,	0.000022
0.011250,	0.103941,	0.000022
0.018750,	0.103941,	0.000022
0.026250,	0.103941,	0.000022
0.033750,	0.103941,	0.000022
0.041250,	0.103941,	0.000022
0.048750,	0.103941,	0.000022
0.056250,	0.103941,	0.000022
0.063750,	0.103941,	0.000022
0.071250,	0.103941,	0.000022
0.078750,	0.103941,	0.000022
0.086250,	0.103941,	0.000022
0.093750,	0.103941,	0.000022
0.101250,	0.103941,	0.000022
0.108750,	0.103941,	0.000022
0.116250,	0.103941,	0.000022
0.123750,	0.103941,	0.000022
0.131250,	0.103941,	0.000022
0.138750,	0.103941,	0.000022
0.146250,	0.103941,	0.000022
0.153750,	0.103941,	0.000022
0.161250,	0.103941,	0.000022
0.168750,	0.103941,	0.000022
0.176250,	0.103941,	0.000022
0.183750,	0.103941,	0.000022
0.191250,	0.103941,	0.000022
0.198750,	0.103941,	0.000022
0.206250,	0.103941,	0.000022
0.213750,	0.103941,	0.000022
0.221250,	0.103941,	0.000022
0.228750,	0.103941,	0.000022
0.236250,	0.103941,	0.000022
0.243750,	0.103941,	0.000022
0.251250,	0.103941,	0.000022
0.258750,	0.103941,	0.000022
0.266250,	0.103941,	0.000022
0.273750,	0.103941,	0.000022
0.281250,	0.103941,	0.000022
0.288750,	0.103941,	0.000022
0.296250,	0.103941,	0.000022
0.303750,	0.103941,	0.000022
0.311250,	0.103941,	0.000022
0.318750,	0.103941,	0.000022
0.326250,	0.103941,	0.000022
0.333750,	0.103941,	0.000022
0.341250,	0.103941,	0.000022
0.348750,	0.103941,	0.000022
0.356250,	0.103941,	0.000022
0.363750,	0.103941,	0.000022
0.371250,	0.103941,	0.000022
0.378750,	0.103941,	0.000022
0.386250,	0.103941,	0.000022
0.393750,	0.103941,	0.000022
0.401250,	0.103941,	0.000022
0.408750,	0.103941,	0.000022
0.416250,	0.103941,	0.000022
0.423750,	0.103941,	0.000022
0.431250,	0.103941,	0.000022
0.438750,	0.103941,	0.000022
0.446250,	0.103941,	0.000022
0.453750,	0.103941,	0.000022
0.461250,	0.103941,	0.000022
0.468750,	0.103941,	0.000022
0.476250,	0.103941,	0.000022
0.483750,	0.103941,	0.000022
0.491250,	0.103941,	0.000022
0.498750,	0.104829,	0.000022
0.506250,	0.108384,	0.000022
0.513750,	0.113717,	0.000022
0.521250,	0.119050,	0.000022
0.528750,	0.124382,	0.000022
0.536250,	0.129715,	0.000022
0.543750,	0.135048,	0.000022
0.551250,	0.140380,	0.000022
0.558750,	0.145713,	0.000022
0.566250,	0.151045,	0.000022
0.573750,	0.156378,	0.000022
0.581250,	0.161711,	0.000022
0.588750,	0.167044,	0.000021
0.596250,	0.172376,	0.000021
0.603750,	0.177709,	0.000021
0.611250,	0.183041,	0.000021
0.618750,	0.188374,	0.000021
0.626250,	0.193707,	0.000021
0.633750,	0.199040,	0.000021
0.641250,	0.204372,	0.000021
0.648750,	0.209705,	0.000021
0.656250,	0.215037,	0.000021
0.663750,	0.220370,	0.000021
0.671250,	0.225703,	0.000021
0.678750,	0.231036,	0.000021
0.686250,	0.236368,	0.000021
0.693750,	0.241701,	0.000021
0.701250,	0.247033,	0.000021
0.708750,	0.252366,	0.000020
0.716250,	0.257699,	0.000020
0.723750,	0.263032,	0.000020
0.731250,	0.268364,	0.000020
0.738750,	0.273697,	0.000020
0.746250,	0.279030,	0.000020
0.753750,	0.284362,	0.000020
0.761250,	0.289695,	0.000020
0.768750,	0.295028,	0.000020
0.776250,	0.300360,	0.000020
0.783750,	0.305693,	0.000020
0.791250,	0.311025,	0.000020
0.798750,	0.316358,	0.000020
0.806250,	0.321691,	0.000020
0.813750,	0.327024,	0.000020
0.821250,	0.332356,	0.000020
0.828750,	0.337689,	0.000019
0.836250,	0.343022,	0.000019
0.843750,	0.348354,	0.000019
0.851250,	0.353687,	0.000019
0.858750,	0.359020,	0.000019
0.866250,	0.364352,	0.000019
0.873750,	0.369685,	0.000019
0.881250,	0.375018,	0.000019
0.888750,	0.380350,	0.000019
0.896250,	0.385683,	0.000019
0.903750,	0.391016,	0.000019
0.911250,	0.396348,	0.000019
0.918750,	0.401681,	0.000019
0.926250,	0.407013,	0.000019
0.933750,	0.412346,	0.000019
0.941250,	0.417679,	0.000019
0.948750,	0.423012,	0.000018
0.956250,	0.428345,	0.000018
0.963750,	0.433677,	0.000018
0.971250,	0.439009,	0.000018
0.978750,	0.444342,	0.000018
0.986250,	0.449675,	0.000018
0.993750,	0.455008,	0.000018
1.001250,	0.460340,	0.000018
1.008750,	0.465673,	0.000018
1.016250,	0.471006,	0.000018
1.023750,	0.476338,	0.000018
1.031250,	0.481671,	0.000018
1.038750,	0.487004,	0.000018
1.046250,	0.492337,	0.000018
1.053750,	0.497669,	0.000018
1.061250,	0.503001,	0.000018
1.068750,	0.508334,	0.000017
1.076250,	0.513667,	0.000017
1.083750,	0.519000,	0.000017
1.091250,	0.524332,	0.000017
1.098750,	0.529665,	0.000017
1.106250,	0.534998,	0.000017
1.113750,	0.540330,	0.000017
1.121250,	0.545663,	0.000017
1.128750,	0.550996,	0.000017
1.136250,	0.556329,	0.000017
1.143750,	0.561661,	0.000017
1.151250,	0.566993,	0.000017
1.158750,	0.572326,	0.000017
1.166250,	0.577659,	0.000017
1.173750,	0.582992,	0.000017
1.181250,	0.588325,	0.000017
1.188750,	0.593657,	0.000016
1.196250,	0.598989,	0.000016
1.203750,	0.604322,	0.000016
1.211250,	0.609655,	0.000016
1.218750,	0.614988,	0.000016
1.226250,	0.620320,	0.000016
1.233750,	0.625653,	0.000016
1.241250,	0.630985,	0.000016
1.248750,	0.636318,	0.000016
1.256250,	0.641651,	0.000016
1.263750,	0.646984,	0.000016
1.271250,	0.652316,	0.000016
1.278750,	0.657649,	0.000016
1.286250,	0.662982,	0.000016
1.293750,	0.668314,	0.000016
1.301250,	0.673647,	0.000016
1.308750,	0.678980,	0.000015
1.316250,	0.684312,	0.000015
1.323750,	0.689645,	0.000015
1.331250,	0.694978,	0.000015
1.338750,	0.700310,	0.000015
1.346250,	0.705643,	0.000015
1.353750,	0.710976,	0.000015
1.361250,	0.716309,	0.000015
1.368750,	0.721641,	0.000015
1.376250,	0.726974,	0.000015
1.383750,	0.732306,	0.000015
1.391250,	0.737639,	0.000015
1.398750,	0.742972,	0.000015
1.406250,	0.748304,	0.000015
1.413750,	0.753637,	0.000015
1.421250,	0.758969,	0.000015
1.428750,	0.764302,	0.000014
1.436250,	0.769635,	0.000014
1.443750,	0.774968,	0.000014
1.451250,	0.780301,	0.000014
1.458750,	0.785633,	0.000014
1.466250,	0.790965,	0.000014
1.473750,	0.796298,	0.000014
1.481250,	0.801631,	0.000014
1.488750,	0.806964,	0.000014
1.496250,	0.812296,	0.000014
0.003750,	0.106944,	0.000023
0.011250,	0.106944,	0.000023
0.018750,	0.106944,	0.000023
0.026250,	0.106944,	0.000023
0.033750,	0.106944,	0.000023
0.041250,	0.106944,	0.000023
0.048750,	0.106944,	0.000023
0.056250,	0.106944,	0.000023
0.063750,	0.106944,	0.000023
0.071250,	0.106944,	0.000023
0.078750,	0.106944,	0.000023
0.086250,	0.106944,	0.000023
0.093750,	0.106944,	0.000023
0.101250,	0.106944,	0.000023
0.108750,	0.106944,	0.000023
0.116250,	0.106944,	0.000023
0.123750,	0.106944,	0.000023
0.131250,	0.106944,	0.000023
0.138750,	0.106944,	0.000023
0.146250,	0.106944,	0.000023
0.153750,	0.106944,	0.000023
0.161250,	0.106944,	0.000023
0.168750,	0.106944,	0.000023
0.176250,	0.106944,	0.000023
0.183750,	0.106944,	0.000023
0.191250,	0.106944,	0.000023
0.198750,	0.106944,	0.000023
0.206250,	0.106944,	0.000023
0.213750,	0.106944,	0.000023
0.221250,	0.106944,	0.000023
0.228750,	0.106944,	0.000023
0.236250,	0.106944,	0.000023
0.243750,	0.106944,	0.000023
0.251250,	0.106944,	0.000023
0.258750,	0.106944,	0.000023
0.266250,	0.106944,	0.000023
0.273750,	0.106944,	0.000023
0.281250,	0.106944,	0.000023
0.288750,	0.106944,	0.000023
0.296250,	0.106944,	0.000023
0.303750,	0.106944,	0.000023
0.311250,	0.106944,	0.000023
0.318750,	0.106944,	0.000023
0.326250,	0.106944,	0.000023
0.333750,	0.106944,	0.000023
0.341250,	0.106944,	0.000023
0.348750,	0.106944,	0.000023
0.356250,	0.106944,	0.000023
0.363750,	0.106944,	0.000023
0.371250,	0.106944,	0.000023
0.378750,	0.106944,	0.000023
0.386250,	0.106944,	0.000023
0.393750,	0.106944,	0.000023
0.401250,	0.106944,	0.000023
0.408750,	0.106944,	0.000023
0.416250,	0.106944,	0.000023
0.423750,	0.106944,	0.000023
0.431250,	0.106944,	0.000023
0.438750,	0.106944,	0.000023
0.446250,	0.106944,	0.000023
0.453750,	0.106944,	0.000023
0.461250,	0.106944,	0.000023
0.468750,	0.106944,	0.000023
0.476250,	0.106944,	0.000023
0.483750,	0.106944,	0.000023
0.491250,	0.106944,	0.000023
0.498750,	0.107832,	0.000023
0.506250,	0.111381,	0.000023
0.513750,	0.116706,	0.000023
0.521250,	0.122030,	0.000023
0.528750,	0.127354,	0.000023
0.536250,	0.132678,	0.000023
0.543750,	0.138003,	0.000022
0.551250,	0.143327,	0.000022
0.558750,	0.148651,	0.000022
0.566250,	0.153975,	0.000022
0.573750,	0.159300,	0.000022
0.581250,	0.164624,	0.000022
0.588750,	0.169948,	0.000022
0.596250,	0.175272,	0.000022
0.603750,	0.180596,	0.000022
0.611250,	0.185920,	0.000022
0.618750,	0.191244,	0.000022
0.626250,	0.196569,	0.000022
0.633750,	0.201893,	0.000022
0.641250,	0.207217,	0.000022
0.648750,	0.212542,	0.000022
0.656250,	0.217866,	0.000021
0.663750,	0.223190,	0.000021
0.671250,	0.228514,	0.000021
0.678750,	0.233839,	0.000021
0.686250,	0.239163,	0.000021
0.693750,	0.244487,	0.000021
0.701250,	0.249811,	0.000021
0.708750,	0.255136,	0.000021
0.716250,	0.260460,	0.000021
0.723750,	0.265784,	0.000021
0.731250,	0.271108,	0.000021
0.738750,	0.276432,	0.000021
0.746250,	0.281756,	0.000021
0.753750,	0.287080,	0.000021
0.761250,	0.292405,	0.000021
0.768750,	0.297729,	0.000021
0.776250,	0.303053,	0.000020
0.783750,	0.308377,	0.000020
0.791250,	0.313702,	0.000020
0.798750,	0.319026,	0.000020
0.806250,	0.324350,	0.000020
0.813750,	0.329674,	0.000020
0.821250,	0.334999,	0.000020
0.828750,	0.340323,	0.000020
0.836250,	0.345647,	0.000020
0.843750,	0.350971,	0.000020
0.851250,	0.356295,	0.000020
0.858750,	0.361619,	0.000020
0.866250,	0.366944,	0.000020
0.873750,	0.372268,	0.000020
0.881250,	0.377592,	0.000020
0.888750,	0.382916,	0.000020
0.896250,	0.388241,	0.000019
0.903750,	0.393565,	0.000019
0.911250,	0.398889,	0.000019
0.918750,	0.404214,	0.000019
0.926250,	0.409538,	0.000019
0.933750,	0.414862,	0.000019
0.941250,	0.420186,	0.000019
0.948750,	0.425511,	0.000019
0.956250,	0.430835,	0.000019
0.963750,	0.436158,	0.000019
0.971250,	0.441483,	0.000019
0.978750,	0.446807,	0.000019
0.986250,	0.452131,	0.000019
0.993750,	0.457456,	0.000019
1.001250,	0.462780,	0.000019
1.008750,	0.468104,	0.000018
1.016250,	0.473428,	0.000018
1.023750,	0.478753,	0.000018
1.031250,	0.484077,	0.000018
1.038750,	0.489401,	0.000018
1.046250,	0.494725,	0.000018
1.053750,	0.500050,	0.000018
1.061250,	0.505374,	0.000018
1.068750,	0.510698,	0.000018
1.076250,	0.516022,	0.000018
1.083750,	0.521346,	0.000018
1.091250,	0.526670,	0.000018
1.098750,	0.531994,	0.000018
1.106250,	0.537319,	0.000018
1.113750,	0.542643,	0.000018
1.121250,	0.547967,	0.000018
1.128750,	0.553292,	0.000017
1.136250,	0.558616,	0.000017
1.143750,	0.563940,	0.000017
1.151250,	0.569264,	0.000017
1.158750,	0.574588,	0.000017
1.166250,	0.579913,	0.000017
1.173750,	0.585237,	0.000017
1.181250,	0.590561,	0.000017
1.188750,	0.595885,	0.000017
1.196250,	0.601209,	0.000017
1.203750,	0.606534,	0.000017
1.211250,	0.611858,	0.000017
1.218750,	0.617182,	0.000017
1.226250,	0.622506,	0.000017
1.233750,	0.627830,	0.000017
1.241250,	0.633155,	0.000016
1.248750,	0.638479,	0.000016
1.256250,	0.643803,	0.000016
1.263750,	0.649127,	0.000016
1.271250,	0.654452,	0.000016
1.278750,	0.659776,	0.000016
1.286250,	0.665100,	0.000016
1.293750,	0.670424,	0.000016
1.301250,	0.675749,	0.000016
1.308750,	0.681073,	0.000016
1.316250,	0.686397,	0.000016
1.323750,	0.691721,	0.000016
1.331250,	0.697045,	0.000016
1.338750,	0.702369,	0.000016
1.346250,	0.707694,	0.000016
1.353750,	0.713018,	0.000016
1.361250,	0.718342,	0.000015
1.368750,	0.723666,	0.000015
1.376250,	0.728991,	0.000015
1.383750,	0.734315,	0.000015
1.391250,	0.739639,	0.000015
1.398750,	0.744964,	0.000015
1.406250,	0.750288,	0.000015
1.413750,	0.755612,	0.000015
1.421250,	0.760936,	0.000015
1.428750,	0.766260,	0.000015
1.436250,	0.771584,	0.000015
1.443750,	0.776909,	0.000015
1.451250,	0.782233,	0.000015
1.458750,	0.787557,	0.000015
1.466250,	0.792881,	0.000015
1.473750,	0.798206,	0.000014
1.481250,	0.803530,	0.000014
1.488750,	0.808854,	0.000014
1.496250,	0.814178,	0.000014
0.003750,	0.110031,	0.000023
0.011250,	0.110031,	0.000023
0.018750,	0.110031,	0.000023
0.026250,	0.110031,	0.000023
0.033750,	0.110031,	0.000023
0.041250,	0.110031,	0.000023
0.048750,	0.110031,	0.000023
0.056250,	0.110031,	0.000023
0.063750,	0.110031,	0.000023
0.071250,	0.110031,	0.000023
0.078750,	0.110031,	0.000023
0.086250,	0.110031,	0.000023
0.093750,	0.110031,	0.000023
0.101250,	0.110031,	0.000023
0.108750,	0.110031,	0.000023
0.116250,	0.110031,	0.000023
0.123750,	0.110031,	0.000023
0.131250,	0.110031,	0.000023
0.138750,	0.110031,	0.000023
0.146250,	0.110031,	0.000023
0.153750,	0.110031,	0.000023
0.161250,	0.110031,	0.000023
0.168750,	0.110031,	0.000023
0.176250,	0.110031,	0.000023
0.183750,	0.110031,	0.000023
0.191250,	0.110031,	0.000023
0.198750,	0.110031,	0.000023
0.206250,	0.110031,	0.000023
0.213750,	0.110031,	0.000023
0.221250,	0.110031,	0.000023
0.228750,	0.110031,	0.000023
0.236250,	0.110031,	0.000023
0.243750,	0.110031,	0.000023
0.251250,	0.110031,	0.000023
0.258750,	0.110031,	0.000023
0.266250,	0.110031,	0.000023
0.273750,	0.110031,	0.000023
0.281250,	0.110031,	0.000023
0.288750,	0.110031,	0.000023
0.296250,	0.110031,	0.000023
0.303750,	0.110031,	0.000023
0.311250,	0.110031,	0.000023
0.318750,	0.110031,	0.000023
0.326250,	0.110031,	0.000023
0.333750,	0.110031,	0.000023
0.341250,	0.110031,	0.000023
0.348750,	0.110031,	0.000023
0.356250,	0.110031,	0.000023
0.363750,	0.110031,	0.000023
0.371250,	0.110031,	0.000023
0.378750,	0.110031,	0.000023
0.386250,	0.110031,	0.000023
0.393750,	0.110031,	0.000023
0.401250,	0.110031,	0.000023
0.408750,	0.110031,	0.000023
0.416250,	0.110031,	0.000023
0.423750,	0.110031,	0.000023
0.431250,	0.110031,	0.000023
0.438750,	0.110031,	0.000023
0.446250,	0.110031,	0.000023
0.453750,	0.110031,	0.000023
0.461250,	0.110031,	0.000023
0.468750,	0.110031,	0.000023
0.476250,	0.110031,	0.000023
0.483750,	0.110031,	0.000023
0.491250,	0.110031,	0.000023
0.498750,	0.110917,	0.000023
0.506250,	0.114460,	0.000023
0.513750,	0.119776,	0.000023
0.521250,	0.125091,	0.000023
0.528750,	0.130407,	0.000023
0.536250,	0.135723,	0.000023
0.543750,	0.141038,	0.000023
0.551250,	0.146354,	0.000023
0.558750,	0.151669,	0.000023
0.566250,	0.156985,	0.000023
0.573750,	0.162301,	0.000023
0.581250,	0.167616,	0.000023
0.588750,	0.172932,	0.000023
0.596250,	0.178247,	0.000023
0.603750,	0.183562,	0.000023
0.611250,	0.188878,	0.000022
0.618750,	0.194193,	0.000022
0.626250,	0.199509,	0.000022
0.633750,	0.204825,	0.000022
0.641250,	0.210140,	0.000022
0.648750,	0.215456,	0.000022
0.656250,	0.220771,	0.000022
0.663750,	0.226087,	0.000022
0.671250,	0.231402,	0.000022
0.678750,	0.236718,	0.000022
0.686250,	0.242034,	0.000022
0.693750,	0.247349,	0.000022
0.701250,	0.252665,	0.000022
0.708750,	0.257980,	0.000022
0.716250,	0.263296,	0.000022
0.723750,	0.268611,	0.000021
0.731250,	0.273926,	0.000021
0.738750,	0.279242,	0.000021
0.746250,	0.284558,	0.000021
0.753750,	0.289873,	0.000021
0.761250,	0.295189,	0.000021
0.768750,	0.300504,	0.000021
0.776250,	0.305820,	0.000021
0.783750,	0.311135,	0.000021
0.791250,	0.316451,	0.000021
0.798750,	0.321767,	0.000021
0.806250,	0.327082,	0.000021
0.813750,	0.332398,	0.000021
0.821250,	0.337713,	0.000021
0.828750,	0.343029,	0.000021
0.836250,	0.348344,	0.000020
0.843750,	0.353659,	0.000020
0.851250,	0.358975,	0.000020
0.858750,	0.364291,	0.000020
0.866250,	0.369606,	0.000020
0.873750,	0.374922,	0.000020
0.881250,	0.380237,	0.000020
0.888750,	0.385553,	0.000020
0.896250,	0.390868,	0.000020
0.903750,	0.396184,	0.000020
0.911250,	0.401500,	0.000020
0.918750,	0.406815,	0.000020
0.926250,	0.412131,	0.000020
0.933750,	0.417446,	0.000020
0.941250,	0.422762,	0.000020
0.948750,	0.428077,	0.000020
0.956250,	0.433393,	0.000019
0.963750,	0.438708,	0.000019
0.971250,	0.444024,	0.000019
0.978750,	0.449339,	0.000019
0.986250,	0.454655,	0.000019
0.993750,	0.459970,	0.000019
1.001250,	0.465286,	0.000019
1.008750,	0.470602,	0.000019
1.016250,	0.475917,	0.000019
1.023750,	0.481233,	0.000019
1.031250,	0.486548,	0.000019
1.038750,	0.491864,	0.000019
1.046250,	0.497179,	0.000019
1.053750,	0.502495,	0.000019
1.061250,	0.507810,	0.000019
1.068750,	0.513126,	0.000018
1.076250,	0.518441,	0.000018
1.083750,	0.523757,	0.000018
1.091250,	0.529072,	0.000018
1.098750,	0.534388,	0.000018
1.106250,	0.539703,	0.000018
1.113750,	0.545019,	0.000018
1.121250,	0.550335,	0.000018
1.128750,	0.555650,	0.000018
1.136250,	0.560966,	0.000018
1.143750,	0.566281,	0.000018
1.151250,	0.571597,	0.000018
1.158750,	0.576912,	0.000018
1.166250,	0.582228,	0.000018
1.173750,	0.587544,	0.000018
1.181250,	0.592859,	0.000017
1.188750,	0.598175,	0.000017
1.196250,	0.603490,	0.000017
1.203750,	0.608805,	0.000017
1.211250,	0.614121,	0.000017
1.218750,	0.619436,	0.000017
1.226250,	0.624752,	0.000017
1.233750,	0.630068,	0.000017
1.241250,	0.635383,	0.000017
1.248750,	0.640699,	0.000017
1.256250,	0.646014,	0.000017
1.263750,	0.651330,	0.000017
1.271250,	0.656645,	0.000017
1.278750,	0.661961,	0.000017
1.286250,	0.667277,	0.000017
1.293750,	0.672592,	0.000016
1.301250,	0.677908,	0.000016
1.308750,	0.683223,	0.000016
1.316250,	0.688538,	0.000016
1.323750,	0.693854,	0.000016
1.331250,	0.699170,	0.000016
1.338750,	0.704485,	0.000016
1.346250,	0.709801,	0.000016
1.353750,	0.715116,	0.000016
1.361250,	0.720432,	0.000016
1.368750,	0.725747,	0.000016
1.376250,	0.731063,	0.000016
1.383750,	0.736378,	0.000016
1.391250,	0.741694,	0.000016
1.398750,	0.747010,	0.000016
1.406250,	0.752325,	0.000015
1.413750,	0.757641,	0.000015
1.421250,	0.762956,	0.000015
1.428750,	0.768271,	0.000015
1.436250,	0.773587,	0.000015
1.443750,	0.778903,	0.000015
1.451250,	0.784218,	0.000015
1.458750,	0.789534,	0.000015
1.466250,	0.794849,	0.000015
1.473750,	0.800165,	0.000015
1.481250,	0.805480,	0.000015
1.488750,	0.810796,	0.000015
1.496250,	0.816112,	0.000015
0.003750,	0.113201,	0.000024
0.011250,	0.113201,	0.000024
0.018750,	0.113201,	0.000024
0.026250,	0.113201,	0.000024
0.033750,	0.113201,	0.000024
0.041250,	0.113201,	0.000024
0.048750,	0.113201,	0.000024
0.056250,	0.113201,	0.000024
0.063750,	0.113201,	0.000024
0.071250,	0.113201,	0.000024
0.078750,	0.113201,	0.000024
0.086250,	0.113201,	0.000024
0.093750,	0.113201,	0.000024
0.101250,	0.113201,	0.000024
0.108750,	0.113201,	0.000024
0.116250,	0.113201,	0.000024
0.123750,	0.113201,	0.000024
0.131250,	0.113201,	0.000024
0.138750,	0.113201,	0.000024
0.146250,	0.113201,	0.000024
0.153750,	0.113201,	0.000024
0.161250,	0.113201,	0.000024
0.168750,	0.113201,	0.000024
0.176250,	0.113201,	0.000024
0.183750,	0.113201,	0.000024
0.191250,	0.113201,	0.000024
0.198750,	0.113201,	0.000024
0.206250,	0.113201,	0.000024
0.213750,	0.113201,	0.000024
0.221250,	0.113201,	0.000024
0.228750,	0.113201,	0.000024
0.236250,	0.113201,	0.000024
0.243750,	0.113201,	0.000024
0.251250,	0.113201,	0.000024
0.258750,	0.113201,	0.000024
0.266250,	0.113201,	0.000024
0.273750,	0.113201,	0.000024
0.281250,	0.113201,	0.000024
0.288750,	0.113201,	0.000024
0.296250,	0.113201,	0.000024
0.303750,	0.113201,	0.000024
0.311250,	0.113201,	0.000024
0.318750,	0.113201,	0.000024
0.326250,	0.113201,	0.000024
0.333750,	0.113201,	0.000024
0.341250,	0.113201,	0.000024
0.348750,	0.113201,	0.000024
0.356250,	0.113201,	0.000024
0.363750,	0.113201,	0.000024
0.371250,	0.113201,	0.000024
0.378750,	0.113201,	0.000024
0.386250,	0.113201,	0.000024
0.393750,	0.113201,	0.000024
0.401250,	0.113201,	0.000024
0.408750,	0.113201,	0.000024
0.416250,	0.113201,	0.000024
0.423750,	0.113201,	0.000024
0.431250,	0.113201,	0.000024
0.438750,	0.113201,	0.000024
0.446250,	0.113201,	0.000024
0.453750,	0.113201,	0.000024
0.461250,	0.113201,	0.000024
0.468750,	0.113201,	0.000024
0.476250,	0.113201,	0.000024
0.483750,	0.113201,	0.000024
0.491250,	0.113201,	0.000024
0.498750,	0.114085,	0.000024
0.506250,	0.117623,	0.000024
0.513750,	0.122930,	0.000024
0.521250,	0.128236,	0.000024
0.528750,	0.133543,	0.000024
0.536250,	0.138850,	0.000024
0.543750,	0.144156,	0.000024
0.551250,	0.149463,	0.000024
0.558750,	0.154770,	0.000024
0.566250,	0.160076,	0.000024
0.573750,	0.165383,	0.000023
0.581250,	0.170690,	0.000023
0.588750,	0.175996,	0.000023
0.596250,	0.181303,	0.000023
0.603750,	0.186609,	0.000023
0.611250,	0.191916,	0.000023
0.618750,	0.197222,	0.000023
0.626250,	0.202529,	0.000023
0.633750,	0.207836,	0.000023
0.641250,	0.213143,	0.000023
0.648750,	0.218449,	0.000023
0.656250,	0.223756,	0.000023
0.663750,	0.229062,	0.000023
0.671250,	0.234369,	0.000023
0.678750,	0.239675,	0.000022
0.686250,	0.244982,	0.000022
0.693750,	0.250289,	0.000022
0.701250,	0.255596,	0.000022
0.708750,	0.260902,	0.000022
0.716250,	0.266209,	0.000022
0.723750,	0.271515,	0.000022
0.731250,	0.276822,	0.000022
0.738750,	0.282129,	0.000022
0.746250,	0.287435,	0.000022
0.753750,	0.292742,	0.000022
0.761250,	0.298048,	0.000022
0.768750,	0.303355,	0.000022
0.776250,	0.308662,	0.000022
0.783750,	0.313968,	0.000022
0.791250,	0.319275,	0.000021
0.798750,	0.324582,	0.000021
0.806250,	0.329888,	0.000021
0.813750,	0.335195,	0.000021
0.821250,	0.340501,	0.000021
0.828750,	0.345808,	0.000021
0.836250,	0.351114,	0.000021
0.843750,	0.356422,	0.000021
0.851250,	0.361728,	0.000021
0.858750,	0.367035,	0.000021
0.866250,	0.372341,	0.000021
0.873750,	0.377648,	0.000021
0.881250,	0.382954,	0.000021
0.888750,	0.388261,	0.000021
0.896250,	0.393568,	0.000021
0.903750,	0.398874,	0.000020
0.911250,	0.404181,	0.000020
0.918750,	0.409488,	0.000020
0.926250,	0.414794,	0.000020
0.933750,	0.420101,	0.000020
0.941250,	0.425407,	0.000020
0.948750,	0.430714,	0.000020
0.956250,	0.436021,	0.000020
0.963750,	0.441327,	0.000020
0.971250,	0.446634,	0.000020
0.978750,	0.451941,	0.000020
0.986250,	0.457247,	0.000020
0.993750,	0.462554,	0.000020
1.001250,	0.467860,	0.000020
1.008750,	0.473167,	0.000019
1.016250,	0.478474,	0.000019
1.023750,	0.483780,	0.000019
1.031250,	0.489087,	0.000019
1.038750,	0.494393,	0.000019
1.046250,	0.499700,	0.000019
1.053750,	0.505007,	0.000019
1.061250,	0.510313,	0.000019
1.068750,	0.515620,	0.000019
1.076250,	0.520927,	0.000019
1.083750,	0.526233,	0.000019
1.091250,	0.531540,	0.000019
1.098750,	0.536846,	0.000019
1.106250,	0.542153,	0.000019
1.113750,	0.547459,	0.000019
1.121250,	0.552766,	0.000018
1.128750,	0.558073,	0.000018
1.136250,	0.563380,	0.000018
1.143750,	0.568686,	0.000018
1.151250,	0.573993,	0.000018
1.158750,	0.579299,	0.000018
1.166250,	0.584606,	0.000018
1.173750,	0.589913,	0.000018
1.181250,	0.595219,	0.000018
1.188750,	0.600526,	0.000018
1.196250,	0.605832,	0.000018
1.203750,	0.611139,	0.000018
1.211250,	0.616446,	0.000018
1.218750,	0.621753,	0.000018
1.226250,	0.627059,	0.000018
1.233750,	0.632366,	0.000017
1.241250,	0.637672,	0.000017
1.248750,	0.642979,	0.000017
1.256250,	0.648285,	0.000017
1.263750,	0.653592,	0.000017
1.271250,	0.658899,	0.000017
1.278750,	0.664206,	0.000017
1.286250,	0.669512,	0.000017
1.293750,	0.674819,	0.000017
1.301250,	0.680125,	0.000017
1.308750,	0.685432,	0.000017
1.316250,	0.690738,	0.000017
1.323750,	0.696045,	0.000017
1.331250,	0.701352,	0.000017
1.338750,	0.706658,	0.000017
1.346250,	0.711965,	0.000016
1.353750,	0.717272,	0.000016
1.361250,	0.722578,	0.000016
1.368750,	0.727885,	0.000016
1.376250,	0.733191,	0.000016
1.383750,	0.738498,	0.000016
1.391250,	0.743805,	0.000016
1.398750,	0.749111,	0.000016
1.406250,	0.754418,	0.000016
1.413750,	0.759724,	0.000016
1.421250,	0.765031,	0.000016
1.428750,	0.770338,	0.000016
1.436250,	0.775645,	0.000016
1.443750,	0.780951,	0.000016
1.451250,	0.786258,	0.000015
1.458750,	0.791564,	0.000015
1.466250,	0.796871,	0.000015
1.473750,	0.802177,	0.000015
1.481250,	0.807484,	0.000015
1.488750,	0.812791,	0.000015
1.496250,	0.818098,	0.000015
0.003750,	0.116457,	0.000025
0.011250,	0.116457,	0.000025
0.018750,	0.116457,	0.000025
0.026250,	0.116457,	0.000025
0.033750,	0.116457,	0.000025
0.041250,	0.116457,	0.000025
0.048750,	0.116457,	0.000025
0.056250,	0.116457,	0.000025
0.063750,	0.116457,	0.000025
0.071250,	0.116457,	0.000025
0.078750,	0.116457,	0.000025
0.086250,	0.116457,	0.000025
0.093750,	0.116457,	0.000025
0.101250,	0.116457,	0.000025
0.108750,	0.116457,	0.000025
0.116250,	0.116457,	0.000025
0.123750,	0.116457,	0.000025
0.131250,	0.116457,	0.000025
0.138750,	0.116457,	0.000025
0.146250,	0.116457,	0.000025
0.153750,	0.116457,	0.000025
0.161250,	0.116457,	0.000025
0.168750,	0.116457,	0.000025
0.176250,	0.116457,	0.000025
0.183750,	0.116457,	0.000025
0.191250,	0.116457,	0.000025
0.198750,	0.116457,	0.000025
0.206250,	0.116457,	0.000025
0.213750,	0.116457,	0.000025
0.221250,	0.116457,	0.000025
0.228750,	0.116457,	0.000025