TITLE = "MeshVolumeStats"
VARIABLES = "X", "Y", "VOL"
ZONE I=200, J=100, DATAPACKING=POINT
0.025000,	0.007500,	0.000750
0.075000,	0.007500,	0.000750
0.125000,	0.007500,	0.000750
0.175000,	0.007500,	0.000750
0.225000,	0.007500,	0.000750
0.275000,	0.007500,	0.000750
0.325000,	0.007500,	0.000750
0.375000,	0.007500,	0.000750
0.425000,	0.007500,	0.000750
0.475000,	0.007500,	0.000750
0.525000,	0.015813,	0.000748
0.575000,	0.032438,	0.000744
0.625000,	0.049063,	0.000740
0.675000,	0.065688,	0.000735
0.725000,	0.082313,	0.000731
0.775000,	0.098938,	0.000727
0.825000,	0.115562,	0.000723
0.875000,	0.132188,	0.000719
0.925000,	0.148813,	0.000715
0.975000,	0.165438,	0.000710
1.025000,	0.182063,	0.000706
1.075000,	0.198688,	0.000702
1.125000,	0.215312,	0.000698
1.175000,	0.231937,	0.000694
1.225000,	0.248562,	0.000690
1.275000,	0.265187,	0.000685
1.325000,	0.281813,	0.000681
1.375000,	0.298438,	0.000677
1.425000,	0.315063,	0.000673
1.475000,	0.331688,	0.000669
1.525000,	0.348313,	0.000665
1.575000,	0.364937,	0.000660
1.625000,	0.381563,	0.000656
1.675000,	0.398188,	0.000652
1.725000,	0.414813,	0.000648
1.775000,	0.431438,	0.000644
1.825000,	0.448063,	0.000640
1.875000,	0.464687,	0.000635
1.925000,	0.481312,	0.000631
1.975000,	0.497937,	0.000627
2.025000,	0.514563,	0.000623
2.075000,	0.531187,	0.000619
2.125000,	0.547813,	0.000615
2.175000,	0.564438,	0.000610
2.225000,	0.581062,	0.000606
2.275000,	0.597687,	0.000602
2.325000,	0.614313,	0.000598
2.375000,	0.630938,	0.000594
2.425000,	0.647563,	0.000590
2.475000,	0.664188,	0.000585
2.525000,	0.680812,	0.000581
2.575000,	0.697437,	0.000577
2.625000,	0.714063,	0.000573
2.675000,	0.730687,	0.000569
2.725000,	0.747313,	0.000565
2.775000,	0.763938,	0.000560
2.825000,	0.780563,	0.000556
2.875000,	0.797188,	0.000552
2.925000,	0.813813,	0.000548
2.975000,	0.830437,	0.000544
3.025000,	0.847063,	0.000540
3.075000,	0.863687,	0.000535
3.125000,	0.880313,	0.000531
3.175000,	0.896938,	0.000527
3.225000,	0.913562,	0.000523
3.275000,	0.930188,	0.000519
3.325000,	0.946812,	0.000515
3.375000,	0.963437,	0.000510
3.425000,	0.980063,	0.000506
3.475000,	0.996687,	0.000502
3.525000,	1.005000,	0.000500
3.575000,	1.005000,	0.000500
3.625000,	1.005000,	0.000500
3.675000,	1.005000,	0.000500
3.725000,	1.005000,	0.000500
3.775000,	1.005000,	0.000500
3.825000,	1.005000,	0.000500
3.875000,	1.005000,	0.000500
3.925000,	1.005000,	0.000500
3.975000,	1.005000,	0.000500
4.025000,	1.005000,	0.000500
4.075000,	1.005000,	0.000500
4.125000,	1.005000,	0.000500
4.175000,	1.005000,	0.000500
4.225000,	1.005000,	0.000500
4.275000,	1.005000,	0.000500
4.325000,	1.005000,	0.000500
4.375000,	1.005000,	0.000500
4.425000,	1.005000,	0.000500
4.475000,	1.005000,	0.000500
4.525000,	1.005000,	0.000500
4.575000,	1.005000,	0.000500
4.625000,	1.005000,	0.000500
4.675000,	1.005000,	0.000500
4.725000,	1.005000,	0.000500
4.775000,	1.005000,	0.000500
4.825000,	1.005000,	0.000500
4.875000,	1.005000,	0.000500
4.925000,	1.005000,	0.000500
4.975000,	1.005000,	0.000500
5.025000,	1.005000,	0.000500
5.075000,	1.005000,	0.000500
5.125000,	1.005000,	0.000500
5.175000,	1.005000,	0.000500
5.225000,	1.005000,	0.000500
5.275000,	1.005000,	0.000500
5.325000,	1.005000,	0.000500
5.375000,	1.005000,	0.000500
5.425000,	1.005000,	0.000500
5.475000,	1.005000,	0.000500
5.525000,	1.005000,	0.000500
5.575000,	1.005000,	0.000500
5.625000,	1.005000,	0.000500
5.675000,	1.005000,	0.000500
5.725000,	1.005000,	0.000500
5.775000,	1.005000,	0.000500
5.825000,	1.005000,	0.000500
5.875000,	1.005000,	0.000500
5.925000,	1.005000,	0.000500
5.975000,	1.005000,	0.000500
6.025000,	1.005000,	0.000500
6.075000,	1.005000,	0.000500
6.125000,	1.005000,	0.000500
6.175000,	1.005000,	0.000500
6.225000,	1.005000,	0.000500
6.275000,	1.005000,	0.000500
6.325000,	1.005000,	0.000500
6.375000,	1.005000,	0.000500
6.425000,	1.005000,	0.000500
6.475000,	1.005000,	0.000500
6.525000,	1.005000,	0.000500
6.575000,	1.005000,	0.000500
6.625000,	1.005000,	0.000500
6.675000,	1.005000,	0.000500
6.725000,	1.005000,	0.000500
6.775000,	1.005000,	0.000500
6.825000,	1.005000,	0.000500
6.875000,	1.005000,	0.000500
6.925000,	1.005000,	0.000500
6.975000,	1.005000,	0.000500
7.025000,	1.005000,	0.000500
7.075000,	1.005000,	0.000500
7.125000,	1.005000,	0.000500
7.175000,	1.005000,	0.000500
7.225000,	1.005000,	0.000500
7.275000,	1.005000,	0.000500
7.325000,	1.005000,	0.000500
7.375000,	1.005000,	0.000500
7.425000,	1.005000,	0.000500
7.475000,	1.005000,	0.000500
7.525000,	1.005000,	0.000500
7.575000,	1.005000,	0.000500
7.625000,	1.005000,	0.000500
7.675000,	1.005000,	0.000500
7.725000,	1.005000,	0.000500
7.775000,	1.005000,	0.000500
7.825000,	1.005000,	0.000500
7.875000,	1.005000,	0.000500
7.925000,	1.005000,	0.000500
7.975000,	1.005000,	0.000500
8.025000,	1.005000,	0.000500
8.075000,	1.005000,	0.000500
8.125000,	1.005000,	0.000500
8.175000,	1.005000,	0.000500
8.225000,	1.005000,	0.000500
8.275000,	1.005000,	0.000500
8.325000,	1.005000,	0.000500
8.375000,	1.005000,	0.000500
8.425000,	1.005000,	0.000500
8.475000,	1.005000,	0.000500
8.525000,	1.005000,	0.000500
8.575000,	1.005000,	0.000500
8.625000,	1.005000,	0.000500
8.675000,	1.005000,	0.000500
8.725000,	1.005000,	0.000500
8.775000,	1.005000,	0.000500
8.825000,	1.005000,	0.000500
8.875000,	1.005000,	0.000500
8.925000,	1.005000,	0.000500
8.975000,	1.005000,	0.000500
9.025000,	1.005000,	0.000500
9.075000,	1.005000,	0.000500
9.125000,	1.005000,	0.000500
9.175000,	1.005000,	0.000500
9.225000,	1.005000,	0.000500
9.275000,	1.005000,	0.000500
9.325000,	1.005000,	0.000500
9.375000,	1.005000,	0.000500
9.425000,	1.005000,	0.000500
9.475000,	1.005000,	0.000500
9.525000,	1.005000,	0.000500
9.575000,	1.005000,	0.000500
9.625000,	1.005000,	0.000500
9.675000,	1.005000,	0.000500
9.725000,	1.005000,	0.000500
9.775000,	1.005000,	0.000500
9.825000,	1.005000,	0.000500
9.875000,	1.005000,	0.000500
9.925000,	1.005000,	0.000500
9.975000,	1.005000,	0.000500
0.025000,	0.022649,	0.000765
0.075000,	0.022649,	0.000765
0.125000,	0.022649,	0.000765
0.175000,	0.022649,	0.000765
0.225000,	0.022649,	0.000765
0.275000,	0.022649,	0.000765
0.325000,	0.022649,	0.000765
0.375000,	0.022649,	0.000765
0.425000,	0.022649,	0.000765
0.475000,	0.022649,	0.000765
0.525000,	0.030919,	0.000763
0.575000,	0.047460,	0.000758
0.625000,	0.064001,	0.000754
0.675000,	0.080541,	0.000750
0.725000,	0.097082,	0.000746
0.775000,	0.113623,	0.000741
0.825000,	0.130164,	0.000737
0.875000,	0.146705,	0.000733
0.925000,	0.163246,	0.000729
0.975000,	0.179787,	0.000724
1.025000,	0.196327,	0.000720
1.075000,	0.212868,	0.000716
1.125000,	0.229409,	0.000712
1.175000,	0.245950,	0.000708
1.225000,	0.262491,	0.000703
1.275000,	0.279031,	0.000699
1.325000,	0.295573,	0.000695
1.375000,	0.312113,	0.000690
1.425000,	0.328654,	0.000686
1.475000,	0.345195,	0.000682
1.525000,	0.361736,	0.000678
1.575000,	0.378277,	0.000674
1.625000,	0.394817,	0.000669
1.675000,	0.411358,	0.000665
1.725000,	0.427899,	0.000661
1.775000,	0.444440,	0.000656
1.825000,	0.460981,	0.000652
1.875000,	0.477521,	0.000648
1.925000,	0.494062,	0.000644
1.975000,	0.510603,	0.000639
2.025000,	0.527144,	0.000635
2.075000,	0.543685,	0.000631
2.125000,	0.560226,	0.000627
2.175000,	0.576767,	0.000623
2.225000,	0.593307,	0.000618
2.275000,	0.609849,	0.000614
2.325000,	0.626389,	0.000610
2.375000,	0.642930,	0.000605
2.425000,	0.659471,	0.000601
2.475000,	0.676012,	0.000597
2.525000,	0.692553,	0.000593
2.575000,	0.709094,	0.000589
2.625000,	0.725634,	0.000584
2.675000,	0.742175,	0.000580
2.725000,	0.758716,	0.000576
2.775000,	0.775257,	0.000572
2.825000,	0.791797,	0.000567
2.875000,	0.808338,	0.000563
2.925000,	0.824879,	0.000559
2.975000,	0.841420,	0.000555
3.025000,	0.857961,	0.000550
3.075000,	0.874502,	0.000546
3.125000,	0.891043,	0.000542
3.175000,	0.907584,	0.000538
3.225000,	0.924124,	0.000533
3.275000,	0.940665,	0.000529
3.325000,	0.957206,	0.000525
3.375000,	0.973747,	0.000521
3.425000,	0.990288,	0.000516
3.475000,	1.006829,	0.000512
3.525000,	1.015099,	0.000510
3.575000,	1.015099,	0.000510
3.625000,	1.015099,	0.000510
3.675000,	1.015099,	0.000510
3.725000,	1.015099,	0.000510
3.775000,	1.015099,	0.000510
3.825000,	1.015099,	0.000510
3.875000,	1.015099,	0.000510
3.925000,	1.015099,	0.000510
3.975000,	1.015099,	0.000510
4.025000,	1.015099,	0.000510
4.075000,	1.015099,	0.000510
4.125000,	1.015099,	0.000510
4.175000,	1.015099,	0.000510
4.225000,	1.015099,	0.000510
4.275000,	1.015099,	0.000510
4.325000,	1.015099,	0.000510
4.375000,	1.015099,	0.000510
4.425000,	1.015099,	0.000510
4.475000,	1.015099,	0.000510
4.525000,	1.015099,	0.000510
4.575000,	1.015099,	0.000510
4.625000,	1.015099,	0.000510
4.675000,	1.015099,	0.000510
4.725000,	1.015099,	0.000510
4.775000,	1.015099,	0.000510
4.825000,	1.015099,	0.000510
4.875000,	1.015099,	0.000510
4.925000,	1.015099,	0.000510
4.975000,	1.015099,	0.000510
5.025000,	1.015099,	0.000510
5.075000,	1.015099,	0.000510
5.125000,	1.015099,	0.000510
5.175000,	1.015099,	0.000510
5.225000,	1.015099,	0.000510
5.275000,	1.015099,	0.000510
5.325000,	1.015099,	0.000510
5.375000,	1.015099,	0.000510
5.425000,	1.015099,	0.000510
5.475000,	1.015099,	0.000510
5.525000,	1.015099,	0.000510
5.575000,	1.015099,	0.000510
5.625000,	1.015099,	0.000510
5.675000,	1.015099,	0.000510
5.725000,	1.015099,	0.000510
5.775000,	1.015099,	0.000510
5.825000,	1.015099,	0.000510
5.875000,	1.015099,	0.000510
5.925000,	1.015099,	0.000510
5.975000,	1.015099,	0.000510
6.025000,	1.015099,	0.000510
6.075000,	1.015099,	0.000510
6.125000,	1.015099,	0.000510
6.175000,	1.015099,	0.000510
6.225000,	1.015099,	0.000510
6.275000,	1.015099,	0.000510
6.325000,	1.015099,	0.000510
6.375000,	1.015099,	0.000510
6.425000,	1.015099,	0.000510
6.475000,	1.015099,	0.000510
6.525000,	1.015099,	0.000510
6.575000,	1.015099,	0.000510
6.625000,	1.015099,	0.000510
6.675000,	1.015099,	0.000510
6.725000,	1.015099,	0.000510
6.775000,	1.015099,	0.000510
6.825000,	1.015099,	0.000510
6.875000,	1.015099,	0.000510
6.925000,	1.015099,	0.000510
6.975000,	1.015099,	0.000510
7.025000,	1.015099,	0.000510
7.075000,	1.015099,	0.000510
7.125000,	1.015099,	0.000510
7.175000,	1.015099,	0.000510
7.225000,	1.015099,	0.000510
7.275000,	1.015099,	0.000510
7.325000,	1.015099,	0.000510
7.375000,	1.015099,	0.000510
7.425000,	1.015099,	0.000510
7.475000,	1.015099,	0.000510
7.525000,	1.015099,	0.000510
7.575000,	1.015099,	0.000510
7.625000,	1.015099,	0.000510
7.675000,	1.015099,	0.000510
7.725000,	1.015099,	0.000510
7.775000,	1.015099,	0.000510
7.825000,	1.015099,	0.000510
7.875000,	1.015099,	0.000510
7.925000,	1.015099,	0.000510
7.975000,	1.015099,	0.000510
8.025000,	1.015099,	0.000510
8.075000,	1.015099,	0.000510
8.125000,	1.015099,	0.000510
8.175000,	1.015099,	0.000510
8.225000,	1.015099,	0.000510
8.275000,	1.015099,	0.000510
8.325000,	1.015099,	0.000510
8.375000,	1.015099,	0.000510
8.425000,	1.015099,	0.000510
8.475000,	1.015099,	0.000510
8.525000,	1.015099,	0.000510
8.575000,	1.015099,	0.000510
8.625000,	1.015099,	0.000510
8.675000,	1.015099,	0.000510
8.725000,	1.015099,	0.000510
8.775000,	1.015099,	0.000510
8.825000,	1.015099,	0.000510
8.875000,	1.015099,	0.000510
8.925000,	1.015099,	0.000510
8.975000,	1.015099,	0.000510
9.025000,	1.015099,	0.000510
9.075000,	1.015099,	0.000510
9.125000,	1.015099,	0.000510
9.175000,	1.015099,	0.000510
9.225000,	1.015099,	0.000510
9.275000,	1.015099,	0.000510
9.325000,	1.015099,	0.000510
9.375000,	1.015099,	0.000510
9.425000,	1.015099,	0.000510
9.475000,	1.015099,	0.000510
9.525000,	1.015099,	0.000510
9.575000,	1.015099,	0.000510
9.625000,	1.015099,	0.000510
9.675000,	1.015099,	0.000510
9.725000,	1.015099,	0.000510
9.775000,	1.015099,	0.000510
9.825000,	1.015099,	0.000510
9.875000,	1.015099,	0.000510
9.925000,	1.015099,	0.000510
9.975000,	1.015099,	0.000510
0.025000,	0.038094,	0.000780
0.075000,	0.038094,	0.000780
0.125000,	0.038094,	0.000780
0.175000,	0.038094,	0.000780
0.225000,	0.038094,	0.000780
0.275000,	0.038094,	0.000780
0.325000,	0.038094,	0.000780
0.375000,	0.038094,	0.000780
0.425000,	0.038094,	0.000780
0.475000,	0.038094,	0.000780
0.525000,	0.046322,	0.000778
0.575000,	0.062777,	0.000773
0.625000,	0.079232,	0.000769
0.675000,	0.095686,	0.000765
0.725000,	0.112142,	0.000760
0.775000,	0.128597,	0.000756
0.825000,	0.145051,	0.000752
0.875000,	0.161507,	0.000747
0.925000,	0.177962,	0.000743
0.975000,	0.194417,	0.000739
1.025000,	0.210872,	0.000734
1.075000,	0.227327,	0.000730
1.125000,	0.243782,	0.000726
1.175000,	0.260237,	0.000721
1.225000,	0.276692,	0.000717
1.275000,	0.293147,	0.000713
1.325000,	0.309602,	0.000708
1.375000,	0.326057,	0.000704
1.425000,	0.342512,	0.000700
1.475000,	0.358967,	0.000695
1.525000,	0.375422,	0.000691
1.575000,	0.391877,	0.000687
1.625000,	0.408332,	0.000682
1.675000,	0.424787,	0.000678
1.725000,	0.441242,	0.000674
1.775000,	0.457697,	0.000669
1.825000,	0.474152,	0.000665
1.875000,	0.490607,	0.000661
1.925000,	0.507062,	0.000656
1.975000,	0.523518,	0.000652
2.025000,	0.539973,	0.000648
2.075000,	0.556428,	0.000643
2.125000,	0.572883,	0.000639
2.175000,	0.589338,	0.000635
2.225000,	0.605793,	0.000630
2.275000,	0.622248,	0.000626
2.325000,	0.638703,	0.000622
2.375000,	0.655158,	0.000617
2.425000,	0.671613,	0.000613
2.475000,	0.688068,	0.000609
2.525000,	0.704523,	0.000604
2.575000,	0.720978,	0.000600
2.625000,	0.737433,	0.000596
2.675000,	0.753888,	0.000591
2.725000,	0.770343,	0.000587
2.775000,	0.786798,	0.000583
2.825000,	0.803253,	0.000578
2.875000,	0.819708,	0.000574
2.925000,	0.836163,	0.000570
2.975000,	0.852618,	0.000565
3.025000,	0.869074,	0.000561
3.075000,	0.885528,	0.000557
3.125000,	0.901983,	0.000552
3.175000,	0.918439,	0.000548
3.225000,	0.934893,	0.000544
3.275000,	0.951348,	0.000539
3.325000,	0.967803,	0.000535
3.375000,	0.984259,	0.000531
3.425000,	1.000714,	0.000526
3.475000,	1.017168,	0.000522
3.525000,	1.025396,	0.000520
3.575000,	1.025396,	0.000520
3.625000,	1.025396,	0.000520
3.675000,	1.025396,	0.000520
3.725000,	1.025396,	0.000520
3.775000,	1.025396,	0.000520
3.825000,	1.025396,	0.000520
3.875000,	1.025396,	0.000520
3.925000,	1.025396,	0.000520
3.975000,	1.025396,	0.000520
4.025000,	1.025396,	0.000520
4.075000,	1.025396,	0.000520
4.125000,	1.025396,	0.000520
4.175000,	1.025396,	0.000520
4.225000,	1.025396,	0.000520
4.275000,	1.025396,	0.000520
4.325000,	1.025396,	0.000520
4.375000,	1.025396,	0.000520
4.425000,	1.025396,	0.000520
4.475000,	1.025396,	0.000520
4.525000,	1.025396,	0.000520
4.575000,	1.025396,	0.000520
4.625000,	1.025396,	0.000520
4.675000,	1.025396,	0.000520
4.725000,	1.025396,	0.000520
4.775000,	1.025396,	0.000520
4.825000,	1.025396,	0.000520
4.875000,	1.025396,	0.000520
4.925000,	1.025396,	0.000520
4.975000,	1.025396,	0.000520
5.025000,	1.025396,	0.000520
5.075000,	1.025396,	0.000520
5.125000,	1.025396,	0.000520
5.175000,	1.025396,	0.000520
5.225000,	1.025396,	0.000520
5.275000,	1.025396,	0.000520
5.325000,	1.025396,	0.000520
5.375000,	1.025396,	0.000520
5.425000,	1.025396,	0.000520
5.475000,	1.025396,	0.000520
5.525000,	1.025396,	0.000520
5.575000,	1.025396,	0.000520
5.625000,	1.025396,	0.000520
5.675000,	1.025396,	0.000520
5.725000,	1.025396,	0.000520
5.775000,	1.025396,	0.000520
5.825000,	1.025396,	0.000520
5.875000,	1.025396,	0.000520
5.925000,	1.025396,	0.000520
5.975000,	1.025396,	0.000520
6.025000,	1.025396,	0.000520
6.075000,	1.025396,	0.000520
6.125000,	1.025396,	0.000520
6.175000,	1.025396,	0.000520
6.225000,	1.025396,	0.000520
6.275000,	1.025396,	0.000520
6.325000,	1.025396,	0.000520
6.375000,	1.025396,	0.000520
6.425000,	1.025396,	0.000520
6.475000,	1.025396,	0.000520
6.525000,	1.025396,	0.000520
6.575000,	1.025396,	0.000520
6.625000,	1.025396,	0.000520
6.675000,	1.025396,	0.000520
6.725000,	1.025396,	0.000520
6.775000,	1.025396,	0.000520
6.825000,	1.025396,	0.000520
6.875000,	1.025396,	0.000520
6.925000,	1.025396,	0.000520
6.975000,	1.025396,	0.000520
7.025000,	1.025396,	0.000520
7.075000,	1.025396,	0.000520
7.125000,	1.025396,	0.000520
7.175000,	1.025396,	0.000520
7.225000,	1.025396,	0.000520
7.275000,	1.025396,	0.000520
7.325000,	1.025396,	0.000520
7.375000,	1.025396,	0.000520
7.425000,	1.025396,	0.000520
7.475000,	1.025396,	0.000520
7.525000,	1.025396,	0.000520
7.575000,	1.025396,	0.000520
7.625000,	1.025396,	0.000520
7.675000,	1.025396,	0.000520
7.725000,	1.025396,	0.000520
7.775000,	1.025396,	0.000520
7.825000,	1.025396,	0.000520
7.875000,	1.025396,	0.000520
7.925000,	1.025396,	0.000520
7.975000,	1.025396,	0.000520
8.025000,	1.025396,	0.000520
8.075000,	1.025396,	0.000520
8.125000,	1.025396,	0.000520
8.175000,	1.025396,	0.000520
8.225000,	1.025396,	0.000520
8.275000,	1.025396,	0.000520
8.325000,	1.025396,	0.000520
8.375000,	1.025396,	0.000520
8.425000,	1.025396,	0.000520
8.475000,	1.025396,	0.000520
8.525000,	1.025396,	0.000520
8.575000,	1.025396,	0.000520
8.625000,	1.025396,	0.000520
8.675000,	1.025396,	0.000520
8.725000,	1.025396,	0.000520
8.775000,	1.025396,	0.000520
8.825000,	1.025396,	0.000520
8.875000,	1.025396,	0.000520
8.925000,	1.025396,	0.000520
8.975000,	1.025396,	0.000520
9.025000,	1.025396,	0.000520
9.075000,	1.025396,	0.000520
9.125000,	1.025396,	0.000520
9.175000,	1.025396,	0.000520
9.225000,	1.025396,	0.000520
9.275000,	1.025396,	0.000520
9.325000,	1.025396,	0.000520
9.375000,	1.025396,	0.000520
9.425000,	1.025396,	0.000520
9.475000,	1.025396,	0.000520
9.525000,	1.025396,	0.000520
9.575000,	1.025396,	0.000520
9.625000,	1.025396,	0.000520
9.675000,	1.025396,	0.000520
9.725000,	1.025396,	0.000520
9.775000,	1.025396,	0.000520
9.825000,	1.025396,	0.000520
9.875000,	1.025396,	0.000520
9.925000,	1.025396,	0.000520
9.975000,	1.025396,	0.000520
0.025000,	0.053837,	0.000795
0.075000,	0.053837,	0.000795
0.125000,	0.053837,	0.000795
0.175000,	0.053837,	0.000795
0.225000,	0.053837,	0.000795
0.275000,	0.053837,	0.000795
0.325000,	0.053837,	0.000795
0.375000,	0.053837,	0.000795
0.425000,	0.053837,	0.000795
0.475000,	0.053837,	0.000795
0.525000,	0.062020,	0.000792
0.575000,	0.078388,	0.000788
0.625000,	0.094755,	0.000783
0.675000,	0.111123,	0.000779
0.725000,	0.127491,	0.000775
0.775000,	0.143858,	0.000770
0.825000,	0.160226,	0.000766
0.875000,	0.176594,	0.000761
0.925000,	0.192961,	0.000757
0.975000,	0.209329,	0.000753
1.025000,	0.225696,	0.000748
1.075000,	0.242064,	0.000744
1.125000,	0.258431,	0.000739
1.175000,	0.274799,	0.000735
1.225000,	0.291167,	0.000731
1.275000,	0.307534,	0.000726
1.325000,	0.323902,	0.000722
1.375000,	0.340269,	0.000717
1.425000,	0.356637,	0.000713
1.475000,	0.373004,	0.000708
1.525000,	0.389372,	0.000704
1.575000,	0.405739,	0.000700
1.625000,	0.422107,	0.000695
1.675000,	0.438475,	0.000691
1.725000,	0.454842,	0.000686
1.775000,	0.471210,	0.000682
1.825000,	0.487577,	0.000678
1.875000,	0.503945,	0.000673
1.925000,	0.520313,	0.000669
1.975000,	0.536680,	0.000664
2.025000,	0.553048,	0.000660
2.075000,	0.569415,	0.000656
2.125000,	0.585783,	0.000651
2.175000,	0.602150,	0.000647
2.225000,	0.618518,	0.000642
2.275000,	0.634885,	0.000638
2.325000,	0.651253,	0.000633
2.375000,	0.667621,	0.000629
2.425000,	0.683988,	0.000625
2.475000,	0.700356,	0.000620
2.525000,	0.716723,	0.000616
2.575000,	0.733091,	0.000611
2.625000,	0.749459,	0.000607
2.675000,	0.765826,	0.000603
2.725000,	0.782194,	0.000598
2.775000,	0.798561,	0.000594
2.825000,	0.814929,	0.000589
2.875000,	0.831296,	0.000585
2.925000,	0.847664,	0.000580
2.975000,	0.864031,	0.000576
3.025000,	0.880399,	0.000572
3.075000,	0.896767,	0.000567
3.125000,	0.913134,	0.000563
3.175000,	0.929502,	0.000558
3.225000,	0.945870,	0.000554
3.275000,	0.962237,	0.000550
3.325000,	0.978605,	0.000545
3.375000,	0.994972,	0.000541
3.425000,	1.011340,	0.000536
3.475000,	1.027707,	0.000532
3.525000,	1.035891,	0.000530
3.575000,	1.035891,	0.000530
3.625000,	1.035891,	0.000530
3.675000,	1.035891,	0.000530
3.725000,	1.035891,	0.000530
3.775000,	1.035891,	0.000530
3.825000,	1.035891,	0.000530
3.875000,	1.035891,	0.000530
3.925000,	1.035891,	0.000530
3.975000,	1.035891,	0.000530
4.025000,	1.035891,	0.000530
4.075000,	1.035891,	0.000530
4.125000,	1.035891,	0.000530
4.175000,	1.035891,	0.000530
4.225000,	1.035891,	0.000530
4.275000,	1.035891,	0.000530
4.325000,	1.035891,	0.000530
4.375000,	1.035891,	0.000530
4.425000,	1.035891,	0.000530
4.475000,	1.035891,	0.000530
4.525000,	1.035891,	0.000530
4.575000,	1.035891,	0.000530
4.625000,	1.035891,	0.000530
4.675000,	1.035891,	0.000530
4.725000,	1.035891,	0.000530
4.775000,	1.035891,	0.000530
4.825000,	1.035891,	0.000530
4.875000,	1.035891,	0.000530
4.925000,	1.035891,	0.000530
4.975000,	1.035891,	0.000530
5.025000,	1.035891,	0.000530
5.075000,	1.035891,	0.000530
5.125000,	1.035891,	0.000530
5.175000,	1.035891,	0.000530
5.225000,	1.035891,	0.000530
5.275000,	1.035891,	0.000530
5.325000,	1.035891,	0.000530
5.375000,	1.035891,	0.000530
5.425000,	1.035891,	0.000530
5.475000,	1.035891,	0.000530
5.525000,	1.035891,	0.000530
5.575000,	1.035891,	0.000530
5.625000,	1.035891,	0.000530
5.675000,	1.035891,	0.000530
5.725000,	1.035891,	0.000530
5.775000,	1.035891,	0.000530
5.825000,	1.035891,	0.000530
5.875000,	1.035891,	0.000530
5.925000,	1.035891,	0.000530
5.975000,	1.035891,	0.000530
6.025000,	1.035891,	0.000530
6.075000,	1.035891,	0.000530
6.125000,	1.035891,	0.000530
6.175000,	1.035891,	0.000530
6.225000,	1.035891,	0.000530
6.275000,	1.035891,	0.000530
6.325000,	1.035891,	0.000530
6.375000,	1.035891,	0.000530
6.425000,	1.035891,	0.000530
6.475000,	1.035891,	0.000530
6.525000,	1.035891,	0.000530
6.575000,	1.035891,	0.000530
6.625000,	1.035891,	0.000530
6.675000,	1.035891,	0.000530
6.725000,	1.035891,	0.000530
6.775000,	1.035891,	0.000530
6.825000,	1.035891,	0.000530
6.875000,	1.035891,	0.000530
6.925000,	1.035891,	0.000530
6.975000,	1.035891,	0.000530
7.025000,	1.035891,	0.000530
7.075000,	1.035891,	0.000530
7.125000,	1.035891,	0.000530
7.175000,	1.035891,	0.000530
7.225000,	1.035891,	0.000530
7.275000,	1.035891,	0.000530
7.325000,	1.035891,	0.000530
7.375000,	1.035891,	0.000530
7.425000,	1.035891,	0.000530
7.475000,	1.035891,	0.000530
7.525000,	1.035891,	0.000530
7.575000,	1.035891,	0.000530
7.625000,	1.035891,	0.000530
7.675000,	1.035891,	0.000530
7.725000,	1.035891,	0.000530
7.775000,	1.035891,	0.000530
7.825000,	1.035891,	0.000530
7.875000,	1.035891,	0.000530
7.925000,	1.035891,	0.000530
7.975000,	1.035891,	0.000530
8.025000,	1.035891,	0.000530
8.075000,	1.035891,	0.000530
8.125000,	1.035891,	0.000530
8.175000,	1.035891,	0.000530
8.225000,	1.035891,	0.000530
8.275000,	1.035891,	0.000530
8.325000,	1.035891,	0.000530
8.375000,	1.035891,	0.000530
8.425000,	1.035891,	0.000530
8.475000,	1.035891,	0.000530
8.525000,	1.035891,	0.000530
8.575000,	1.035891,	0.000530
8.625000,	1.035891,	0.000530
8.675000,	1.035891,	0.000530
8.725000,	1.035891,	0.000530
8.775000,	1.035891,	0.000530
8.825000,	1.035891,	0.000530
8.875000,	1.035891,	0.000530
8.925000,	1.035891,	0.000530
8.975000,	1.035891,	0.000530
9.025000,	1.035891,	0.000530
9.075000,	1.035891,	0.000530
9.125000,	1.035891,	0.000530
9.175000,	1.035891,	0.000530
9.225000,	1.035891,	0.000530
9.275000,	1.035891,	0.000530
9.325000,	1.035891,	0.000530
9.375000,	1.035891,	0.000530
9.425000,	1.035891,	0.000530
9.475000,	1.035891,	0.000530
9.525000,	1.035891,	0.000530
9.575000,	1.035891,	0.000530
9.625000,	1.035891,	0.000530
9.675000,	1.035891,	0.000530
9.725000,	1.035891,	0.000530
9.775000,	1.035891,	0.000530
9.825000,	1.035891,	0.000530
9.875000,	1.035891,	0.000530
9.925000,	1.035891,	0.000530
9.975000,	1.035891,	0.000530
0.025000,	0.069876,	0.000809
0.075000,	0.069876,	0.000809
0.125000,	0.069876,	0.000809
0.175000,	0.069876,	0.000809
0.225000,	0.069876,	0.000809
0.275000,	0.069876,	0.000809
0.325000,	0.069876,	0.000809
0.375000,	0.069876,	0.000809
0.425000,	0.069876,	0.000809
0.475000,	0.069876,	0.000809
0.525000,	0.078015,	0.000807
0.575000,	0.094294,	0.000803
0.625000,	0.110572,	0.000798
0.675000,	0.126851,	0.000794
0.725000,	0.143129,	0.000789
0.775000,	0.159408,	0.000785
0.825000,	0.175686,	0.000780
0.875000,	0.191965,	0.000776
0.925000,	0.208243,	0.000771
0.975000,	0.224522,	0.000767
1.025000,	0.240800,	0.000762
1.075000,	0.257078,	0.000758
1.125000,	0.273357,	0.000753
1.175000,	0.289636,	0.000749
1.225000,	0.305914,	0.000744
1.275000,	0.322192,	0.000740
1.325000,	0.338471,	0.000735
1.375000,	0.354749,	0.000731
1.425000,	0.371028,	0.000726
1.475000,	0.387306,	0.000722
1.525000,	0.403585,	0.000717
1.575000,	0.419863,	0.000713
1.625000,	0.436142,	0.000708
1.675000,	0.452420,	0.000704
1.725000,	0.468699,	0.000699
1.775000,	0.484977,	0.000695
1.825000,	0.501256,	0.000690
1.875000,	0.517534,	0.000686
1.925000,	0.533813,	0.000681
1.975000,	0.550091,	0.000677
2.025000,	0.566369,	0.000672
2.075000,	0.582648,	0.000668
2.125000,	0.598926,	0.000663
2.175000,	0.615205,	0.000659
2.225000,	0.631483,	0.000654
2.275000,	0.647762,	0.000650
2.325000,	0.664040,	0.000645
2.375000,	0.680319,	0.000641
2.425000,	0.696597,	0.000636
2.475000,	0.712875,	0.000632
2.525000,	0.729154,	0.000627
2.575000,	0.745433,	0.000623
2.625000,	0.761711,	0.000618
2.675000,	0.777990,	0.000614
2.725000,	0.794268,	0.000609
2.775000,	0.810547,	0.000605
2.825000,	0.826825,	0.000600
2.875000,	0.843103,	0.000596
2.925000,	0.859382,	0.000591
2.975000,	0.875660,	0.000587
3.025000,	0.891939,	0.000582
3.075000,	0.908217,	0.000578
3.125000,	0.924496,	0.000573
3.175000,	0.940774,	0.000569
3.225000,	0.957053,	0.000564
3.275000,	0.973331,	0.000560
3.325000,	0.989609,	0.000555
3.375000,	1.005888,	0.000551
3.425000,	1.022166,	0.000546
3.475000,	1.038445,	0.000542
3.525000,	1.046584,	0.000540
3.575000,	1.046584,	0.000540
3.625000,	1.046584,	0.000540
3.675000,	1.046584,	0.000540
3.725000,	1.046584,	0.000540
3.775000,	1.046584,	0.000540
3.825000,	1.046584,	0.000540
3.875000,	1.046584,	0.000540
3.925000,	1.046584,	0.000540
3.975000,	1.046584,	0.000540
4.025000,	1.046584,	0.000540
4.075000,	1.046584,	0.000540
4.125000,	1.046584,	0.000540
4.175000,	1.046584,	0.000540
4.225000,	1.046584,	0.000540
4.275000,	1.046584,	0.000540
4.325000,	1.046584,	0.000540
4.375000,	1.046584,	0.000540
4.425000,	1.046584,	0.000540
4.475000,	1.046584,	0.000540
4.525000,	1.046584,	0.000540
4.575000,	1.046584,	0.000540
4.625000,	1.046584,	0.000540
4.675000,	1.046584,	0.000540
4.725000,	1.046584,	0.000540
4.775000,	1.046584,	0.000540
4.825000,	1.046584,	0.000540
4.875000,	1.046584,	0.000540
4.925000,	1.046584,	0.000540
4.975000,	1.046584,	0.000540
5.025000,	1.046584,	0.000540
5.075000,	1.046584,	0.000540
5.125000,	1.046584,	0.000540
5.175000,	1.046584,	0.000540
5.225000,	1.046584,	0.000540
5.275000,	1.046584,	0.000540
5.325000,	1.046584,	0.000540
5.375000,	1.046584,	0.000540
5.425000,	1.046584,	0.000540
5.475000,	1.046584,	0.000540
5.525000,	1.046584,	0.000540
5.575000,	1.046584,	0.000540
5.625000,	1.046584,	0.000540
5.675000,	1.046584,	0.000540
5.725000,	1.046584,	0.000540
5.775000,	1.046584,	0.000540
5.825000,	1.046584,	0.000540
5.875000,	1.046584,	0.000540
5.925000,	1.046584,	0.000540
5.975000,	1.046584,	0.000540
6.025000,	1.046584,	0.000540
6.075000,	1.046584,	0.000540
6.125000,	1.046584,	0.000540
6.175000,	1.046584,	0.000540
6.225000,	1.046584,	0.000540
6.275000,	1.046584,	0.000540
6.325000,	1.046584,	0.000540
6.375000,	1.046584,	0.000540
6.425000,	1.046584,	0.000540
6.475000,	1.046584,	0.000540
6.525000,	1.046584,	0.000540
6.575000,	1.046584,	0.000540
6.625000,	1.046584,	0.000540
6.675000,	1.046584,	0.000540
6.725000,	1.046584,	0.000540
6.775000,	1.046584,	0.000540
6.825000,	1.046584,	0.000540
6.875000,	1.046584,	0.000540
6.925000,	1.046584,	0.000540
6.975000,	1.046584,	0.000540
7.025000,	1.046584,	0.000540
7.075000,	1.046584,	0.000540
7.125000,	1.046584,	0.000540
7.175000,	1.046584,	0.000540
7.225000,	1.046584,	0.000540
7.275000,	1.046584,	0.000540
7.325000,	1.046584,	0.000540
7.375000,	1.046584,	0.000540
7.425000,	1.046584,	0.000540
7.475000,	1.046584,	0.000540
7.525000,	1.046584,	0.000540
7.575000,	1.046584,	0.000540
7.625000,	1.046584,	0.000540
7.675000,	1.046584,	0.000540
7.725000,	1.046584,	0.000540
7.775000,	1.046584,	0.000540
7.825000,	1.046584,	0.000540
7.875000,	1.046584,	0.000540
7.925000,	1.046584,	0.000540
7.975000,	1.046584,	0.000540
8.025000,	1.046584,	0.000540
8.075000,	1.046584,	0.000540
8.125000,	1.046584,	0.000540
8.175000,	1.046584,	0.000540
8.225000,	1.046584,	0.000540
8.275000,	1.046584,	0.000540
8.325000,	1.046584,	0.000540
8.375000,	1.046584,	0.000540
8.425000,	1.046584,	0.000540
8.475000,	1.046584,	0.000540
8.525000,	1.046584,	0.000540
8.575000,	1.046584,	0.000540
8.625000,	1.046584,	0.000540
8.675000,	1.046584,	0.000540
8.725000,	1.046584,	0.000540
8.775000,	1.046584,	0.000540
8.825000,	1.046584,	0.000540
8.875000,	1.046584,	0.000540
8.925000,	1.046584,	0.000540
8.975000,	1.046584,	0.000540
9.025000,	1.046584,	0.000540
9.075000,	1.046584,	0.000540
9.125000,	1.046584,	0.000540
9.175000,	1.046584,	0.000540
9.225000,	1.046584,	0.000540
9.275000,	1.046584,	0.000540
9.325000,	1.046584,	0.000540
9.375000,	1.046584,	0.000540
9.425000,	1.046584,	0.000540
9.475000,	1.046584,	0.000540
9.525000,	1.046584,	0.000540
9.575000,	1.046584,	0.000540
9.625000,	1.046584,	0.000540
9.675000,	1.046584,	0.000540
9.725000,	1.046584,	0.000540
9.775000,	1.046584,	0.000540
9.825000,	1.046584,	0.000540
9.875000,	1.046584,	0.000540
9.925000,	1.046584,	0.000540
9.975000,	1.046584,	0.000540
0.025000,	0.086212,	0.000824
0.075000,	0.086212,	0.000824
0.125000,	0.086212,	0.000824
0.175000,	0.086212,	0.000824
0.225000,	0.086212,	0.000824
0.275000,	0.086212,	0.000824
0.325000,	0.086212,	0.000824
0.375000,	0.086212,	0.000824
0.425000,	0.086212,	0.000824
0.475000,	0.086212,	0.000824
0.525000,	0.094307,	0.000822
0.575000,	0.110494,	0.000817
0.625000,	0.126682,	0.000813
0.675000,	0.142870,	0.000808
0.725000,	0.159058,	0.000804
0.775000,	0.175245,	0.000799
0.825000,	0.191433,	0.000794
0.875000,	0.207621,	0.000790
0.925000,	0.223808,	0.000785
0.975000,	0.239996,	0.000781
1.025000,	0.256184,	0.000776
1.075000,	0.272372,	0.000772
1.125000,	0.288559,	0.000767
1.175000,	0.304747,	0.000762
1.225000,	0.320935,	0.000758
1.275000,	0.337122,	0.000753
1.325000,	0.353310,	0.000749
1.375000,	0.369498,	0.000744
1.425000,	0.385686,	0.000740
1.475000,	0.401873,	0.000735
1.525000,	0.418061,	0.000730