TITLE = "MeshVolumeStats"
VARIABLES = "X", "Y", "VOL"
ZONE I=50, J=50, DATAPACKING=POINT
0.015000,	0.010000,	0.000600
0.045000,	0.010000,	0.000600
0.075000,	0.010000,	0.000600
0.105000,	0.010000,	0.000600
0.135000,	0.010000,	0.000600
0.165000,	0.010000,	0.000600
0.195000,	0.010000,	0.000600
0.225000,	0.010000,	0.000600
0.255000,	0.010000,	0.000600
0.285000,	0.010000,	0.000600
0.315000,	0.010000,	0.000600
0.345000,	0.010000,	0.000600
0.375000,	0.010000,	0.000600
0.405000,	0.010000,	0.000600
0.435000,	0.010000,	0.000600
0.465000,	0.010000,	0.000600
0.495000,	0.011238,	0.000599
0.525000,	0.016188,	0.000596
0.555000,	0.023613,	0.000592
0.585000,	0.031037,	0.000587
0.615000,	0.038462,	0.000583
0.645000,	0.045888,	0.000578
0.675000,	0.053312,	0.000574
0.705000,	0.060737,	0.000569
0.735000,	0.068162,	0.000565
0.765000,	0.075588,	0.000560
0.795000,	0.083013,	0.000556
0.825000,	0.090438,	0.000551
0.855000,	0.097863,	0.000547
0.885000,	0.105288,	0.000542
0.915000,	0.112712,	0.000538
0.945000,	0.120138,	0.000533
0.975000,	0.127562,	0.000529
1.005000,	0.134988,	0.000524
1.035000,	0.142412,	0.000520
1.065000,	0.149838,	0.000515
1.095000,	0.157262,	0.000511
1.125000,	0.164687,	0.000506
1.155000,	0.172113,	0.000502
1.185000,	0.179538,	0.000497
1.215000,	0.186963,	0.000493
1.245000,	0.194387,	0.000488
1.275000,	0.201813,	0.000484
1.305000,	0.209237,	0.000479
1.335000,	0.216663,	0.000475
1.365000,	0.224087,	0.000470
1.395000,	0.231513,	0.000466
1.425000,	0.238938,	0.000461
1.455000,	0.246362,	0.000457
1.485000,	0.253787,	0.000452
0.015000,	0.030000,	0.000600
0.045000,	0.030000,	0.000600
0.075000,	0.030000,	0.000600
0.105000,	0.030000,	0.000600
0.135000,	0.030000,	0.000600
0.165000,	0.030000,	0.000600
0.195000,	0.030000,	0.000600
0.225000,	0.030000,	0.000600
0.255000,	0.030000,	0.000600
0.285000,	0.030000,	0.000600
0.315000,	0.030000,	0.000600
0.345000,	0.030000,	0.000600
0.375000,	0.030000,	0.000600
0.405000,	0.030000,	0.000600
0.435000,	0.030000,	0.000600
0.465000,	0.030000,	0.000600
0.495000,	0.031213,	0.000599
0.525000,	0.036062,	0.000596
0.555000,	0.043338,	0.000592
0.585000,	0.050613,	0.000587
0.615000,	0.057887,	0.000583
0.645000,	0.065162,	0.000578
0.675000,	0.072437,	0.000574
0.705000,	0.079712,	0.000569
0.735000,	0.086987,	0.000565
0.765000,	0.094262,	0.000560
0.795000,	0.101538,	0.000556
0.825000,	0.108812,	0.000551
0.855000,	0.116087,	0.000547
0.885000,	0.123363,	0.000542
0.915000,	0.130637,	0.000538
0.945000,	0.137912,	0.000533
0.975000,	0.145187,	0.000529
1.005000,	0.152463,	0.000524
1.035000,	0.159738,	0.000520
1.065000,	0.167013,	0.000515
1.095000,	0.174288,	0.000511
1.125000,	0.181562,	0.000506
1.155000,	0.188837,	0.000502
1.185000,	0.196112,	0.000497
1.215000,	0.203387,	0.000493
1.245000,	0.210663,	0.000488
1.275000,	0.217938,	0.000484
1.305000,	0.225213,	0.000479
1.335000,	0.232488,	0.000475
1.365000,	0.239762,	0.000470
1.395000,	0.247037,	0.000466
1.425000,	0.254312,	0.000461
1.455000,	0.261588,	0.000457
1.485000,	0.268863,	0.000452
0.015000,	0.050000,	0.000600
0.045000,	0.050000,	0.000600
0.075000,	0.050000,	0.000600
0.105000,	0.050000,	0.000600
0.135000,	0.050000,	0.000600
0.165000,	0.050000,	0.000600
0.195000,	0.050000,	0.000600
0.225000,	0.050000,	0.000600
0.255000,	0.050000,	0.000600
0.285000,	0.050000,	0.000600
0.315000,	0.050000,	0.000600
0.345000,	0.050000,	0.000600
0.375000,	0.050000,	0.000600
0.405000,	0.050000,	0.000600
0.435000,	0.050000,	0.000600
0.465000,	0.050000,	0.000600
0.495000,	0.051187,	0.000599
0.525000,	0.055938,	0.000596
0.555000,	0.063063,	0.000592
0.585000,	0.070187,	0.000587
0.615000,	0.077313,	0.000583
0.645000,	0.084438,	0.000578
0.675000,	0.091563,	0.000574
0.705000,	0.098688,	0.000569
0.735000,	0.105813,	0.000565
0.765000,	0.112937,	0.000560
0.795000,	0.120063,	0.000556
0.825000,	0.127188,	0.000551
0.855000,	0.134313,	0.000547
0.885000,	0.141438,	0.000542
0.915000,	0.148563,	0.000538
0.945000,	0.155688,	0.000533
0.975000,	0.162812,	0.000529
1.005000,	0.169938,	0.000524
1.035000,	0.177063,	0.000520
1.065000,	0.184188,	0.000515
1.095000,	0.191313,	0.000511
1.125000,	0.198438,	0.000506
1.155000,	0.205563,	0.000502
1.185000,	0.212688,	0.000497
1.215000,	0.219813,	0.000493
1.245000,	0.226938,	0.000488
1.275000,	0.234063,	0.000484
1.305000,	0.241188,	0.000479
1.335000,	0.248312,	0.000475
1.365000,	0.255437,	0.000470
1.395000,	0.262562,	0.000466
1.425000,	0.269687,	0.000461
1.455000,	0.276812,	0.000457
1.485000,	0.283937,	0.000452
0.015000,	0.070000,	0.000600
0.045000,	0.070000,	0.000600
0.075000,	0.070000,	0.000600
0.105000,	0.070000,	0.000600
0.135000,	0.070000,	0.000600
0.165000,	0.070000,	0.000600
0.195000,	0.070000,	0.000600
0.225000,	0.070000,	0.000600
0.255000,	0.070000,	0.000600
0.285000,	0.070000,	0.000600
0.315000,	0.070000,	0.000600
0.345000,	0.070000,	0.000600
0.375000,	0.070000,	0.000600
0.405000,	0.070000,	0.000600
0.435000,	0.070000,	0.000600
0.465000,	0.070000,	0.000600
0.495000,	0.071163,	0.000599
0.525000,	0.075813,	0.000596
0.555000,	0.082787,	0.000592
0.585000,	0.089763,	0.000587
0.615000,	0.096738,	0.000583
0.645000,	0.103712,	0.000578
0.675000,	0.110688,	0.000574
0.705000,	0.117663,	0.000569
0.735000,	0.124637,	0.000565
0.765000,	0.131613,	0.000560
0.795000,	0.138588,	0.000556
0.825000,	0.145562,	0.000551
0.855000,	0.152537,	0.000547
0.885000,	0.159513,	0.000542
0.915000,	0.166488,	0.000538
0.945000,	0.173463,	0.000533
0.975000,	0.180438,	0.000529
1.005000,	0.187413,	0.000524
1.035000,	0.194387,	0.000520
1.065000,	0.201362,	0.000515
1.095000,	0.208338,	0.000511
1.125000,	0.215313,	0.000506
1.155000,	0.222288,	0.000502
1.185000,	0.229262,	0.000497
1.215000,	0.236238,	0.000493
1.245000,	0.243212,	0.000488
1.275000,	0.250188,	0.000484
1.305000,	0.257162,	0.000479
1.335000,	0.264137,	0.000475
1.365000,	0.271112,	0.000470
1.395000,	0.278087,	0.000466
1.425000,	0.285062,	0.000461
1.455000,	0.292038,	0.000457
1.485000,	0.299012,	0.000452
0.015000,	0.090000,	0.000600
0.045000,	0.090000,	0.000600
0.075000,	0.090000,	0.000600
0.105000,	0.090000,	0.000600
0.135000,	0.090000,	0.000600
0.165000,	0.090000,	0.000600
0.195000,	0.090000,	0.000600
0.225000,	0.090000,	0.000600
0.255000,	0.090000,	0.000600
0.285000,	0.090000,	0.000600
0.315000,	0.090000,	0.000600
0.345000,	0.090000,	0.000600
0.375000,	0.090000,	0.000600
0.405000,	0.090000,	0.000600
0.435000,	0.090000,	0.000600
0.465000,	0.090000,	0.000600
0.495000,	0.091138,	0.000599
0.525000,	0.095687,	0.000596
0.555000,	0.102513,	0.000592
0.585000,	0.109338,	0.000587
0.615000,	0.116162,	0.000583
0.645000,	0.122987,	0.000578
0.675000,	0.129812,	0.000574
0.705000,	0.136637,	0.000569
0.735000,	0.143462,	0.000565
0.765000,	0.150288,	0.000560
0.795000,	0.157112,	0.000556
0.825000,	0.163938,	0.000551
0.855000,	0.170763,	0.000547
0.885000,	0.177587,	0.000542
0.915000,	0.184412,	0.000538
0.945000,	0.191238,	0.000533
0.975000,	0.198063,	0.000529
1.005000,	0.204888,	0.000524
1.035000,	0.211712,	0.000520
1.065000,	0.218537,	0.000515
1.095000,	0.225362,	0.000511
1.125000,	0.232187,	0.000506
1.155000,	0.239013,	0.000502
1.185000,	0.245837,	0.000497
1.215000,	0.252663,	0.000493
1.245000,	0.259487,	0.000488
1.275000,	0.266312,	0.000484
1.305000,	0.273137,	0.000479
1.335000,	0.279963,	0.000475
1.365000,	0.286788,	0.000470
1.395000,	0.293612,	0.000466
1.425000,	0.300438,	0.000461
1.455000,	0.307262,	0.000457
1.485000,	0.314087,	0.000452
0.015000,	0.110000,	0.000600
0.045000,	0.110000,	0.000600
0.075000,	0.110000,	0.000600
0.105000,	0.110000,	0.000600
0.135000,	0.110000,	0.000600
0.165000,	0.110000,	0.000600
0.195000,	0.110000,	0.000600
0.225000,	0.110000,	0.000600
0.255000,	0.110000,	0.000600
0.285000,	0.110000,	0.000600
0.315000,	0.110000,	0.000600
0.345000,	0.110000,	0.000600
0.375000,	0.110000,	0.000600
0.405000,	0.110000,	0.000600
0.435000,	0.110000,	0.000600
0.465000,	0.110000,	0.000600
0.495000,	0.111113,	0.000599
0.525000,	0.115562,	0.000596
0.555000,	0.122237,	0.000592
0.585000,	0.128912,	0.000587
0.615000,	0.135587,	0.000583
0.645000,	0.142263,	0.000578
0.675000,	0.148938,	0.000574
0.705000,	0.155612,	0.000569
0.735000,	0.162287,	0.000565
0.765000,	0.168963,	0.000560
0.795000,	0.175638,	0.000556
0.825000,	0.182313,	0.000551
0.855000,	0.188988,	0.000547
0.885000,	0.195662,	0.000542
0.915000,	0.202338,	0.000538
0.945000,	0.209013,	0.000533
0.975000,	0.215687,	0.000529
1.005000,	0.222363,	0.000524
1.035000,	0.229038,	0.000520
1.065000,	0.235713,	0.000515
1.095000,	0.242387,	0.000511
1.125000,	0.249062,	0.000506
1.155000,	0.255738,	0.000502
1.185000,	0.262412,	0.000497
1.215000,	0.269087,	0.000493
1.245000,	0.275763,	0.000488
1.275000,	0.282438,	0.000484
1.305000,	0.289112,	0.000479
1.335000,	0.295787,	0.000475
1.365000,	0.302462,	0.000470
1.395000,	0.309137,	0.000466
1.425000,	0.315812,	0.000461
1.455000,	0.322487,	0.000457
1.485000,	0.329162,	0.000452
0.015000,	0.130000,	0.000600
0.045000,	0.130000,	0.000600
0.075000,	0.130000,	0.000600
0.105000,	0.130000,	0.000600
0.135000,	0.130000,	0.000600
0.165000,	0.130000,	0.000600
0.195000,	0.130000,	0.000600
0.225000,	0.130000,	0.000600
0.255000,	0.130000,	0.000600
0.285000,	0.130000,	0.000600
0.315000,	0.130000,	0.000600
0.345000,	0.130000,	0.000600
0.375000,	0.130000,	0.000600
0.405000,	0.130000,	0.000600
0.435000,	0.130000,	0.000600
0.465000,	0.130000,	0.000600
0.495000,	0.131087,	0.000599
0.525000,	0.135437,	0.000596
0.555000,	0.141962,	0.000592
0.585000,	0.148487,	0.000587
0.615000,	0.155012,	0.000583
0.645000,	0.161538,	0.000578
0.675000,	0.168063,	0.000574
0.705000,	0.174588,	0.000569
0.735000,	0.181113,	0.000565
0.765000,	0.187637,	0.000560
0.795000,	0.194163,	0.000556
0.825000,	0.200688,	0.000551
0.855000,	0.207213,	0.000547
0.885000,	0.213737,	0.000542
0.915000,	0.220262,	0.000538
0.945000,	0.226788,	0.000533
0.975000,	0.233313,	0.000529
1.005000,	0.239837,	0.000524
1.035000,	0.246362,	0.000520
1.065000,	0.252887,	0.000515
1.095000,	0.259412,	0.000511
1.125000,	0.265937,	0.000506
1.155000,	0.272462,	0.000502
1.185000,	0.278988,	0.000497
1.215000,	0.285513,	0.000493
1.245000,	0.292038,	0.000488
1.275000,	0.298562,	0.000484
1.305000,	0.305088,	0.000479
1.335000,	0.311612,	0.000475
1.365000,	0.318137,	0.000470
1.395000,	0.324662,	0.000466
1.425000,	0.331188,	0.000461
1.455000,	0.337713,	0.000457
1.485000,	0.344237,	0.000452
0.015000,	0.150000,	0.000600
0.045000,	0.150000,	0.000600
0.075000,	0.150000,	0.000600
0.105000,	0.150000,	0.000600
0.135000,	0.150000,	0.000600
0.165000,	0.150000,	0.000600
0.195000,	0.150000,	0.000600
0.225000,	0.150000,	0.000600
0.255000,	0.150000,	0.000600
0.285000,	0.150000,	0.000600
0.315000,	0.150000,	0.000600
0.345000,	0.150000,	0.000600
0.375000,	0.150000,	0.000600
0.405000,	0.150000,	0.000600
0.435000,	0.150000,	0.000600
0.465000,	0.150000,	0.000600
0.495000,	0.151063,	0.000599
0.525000,	0.155312,	0.000596
0.555000,	0.161687,	0.000592
0.585000,	0.168063,	0.000587
0.615000,	0.174438,	0.000583
0.645000,	0.180812,	0.000578
0.675000,	0.187188,	0.000574
0.705000,	0.193562,	0.000569
0.735000,	0.199937,	0.000565
0.765000,	0.206313,	0.000560
0.795000,	0.212688,	0.000556
0.825000,	0.219062,	0.000551
0.855000,	0.225438,	0.000547
0.885000,	0.231813,	0.000542
0.915000,	0.238187,	0.000538
0.945000,	0.244563,	0.000533
0.975000,	0.250937,	0.000529
1.005000,	0.257313,	0.000524
1.035000,	0.263687,	0.000520
1.065000,	0.270063,	0.000515
1.095000,	0.276438,	0.000511
1.125000,	0.282813,	0.000506
1.155000,	0.289187,	0.000502
1.185000,	0.295563,	0.000497
1.215000,	0.301938,	0.000493
1.245000,	0.308312,	0.000488
1.275000,	0.314688,	0.000484
1.305000,	0.321062,	0.000479
1.335000,	0.327437,	0.000475
1.365000,	0.333813,	0.000470
1.395000,	0.340187,	0.000466
1.425000,	0.346562,	0.000461
1.455000,	0.352937,	0.000457
1.485000,	0.359313,	0.000452
0.015000,	0.170000,	0.000600
0.045000,	0.170000,	0.000600
0.075000,	0.170000,	0.000600
0.105000,	0.170000,	0.000600
0.135000,	0.170000,	0.000600
0.165000,	0.170000,	0.000600
0.195000,	0.170000,	0.000600
0.225000,	0.170000,	0.000600
0.255000,	0.170000,	0.000600
0.285000,	0.170000,	0.000600
0.315000,	0.170000,	0.000600
0.345000,	0.170000,	0.000600
0.375000,	0.170000,	0.000600
0.405000,	0.170000,	0.000600
0.435000,	0.170000,	0.000600
0.465000,	0.170000,	0.000600
0.495000,	0.171038,	0.000599
0.525000,	0.175187,	0.000596
0.555000,	0.181413,	0.000592
0.585000,	0.187638,	0.000587
0.615000,	0.193862,	0.000583
0.645000,	0.200088,	0.000578
0.675000,	0.206312,	0.000574
0.705000,	0.212537,	0.000569
0.735000,	0.218762,	0.000565
0.765000,	0.224988,	0.000560
0.795000,	0.231212,	0.000556
0.825000,	0.237438,	0.000551
0.855000,	0.243663,	0.000547
0.885000,	0.249888,	0.000542
0.915000,	0.256113,	0.000538
0.945000,	0.262338,	0.000533
0.975000,	0.268563,	0.000529
1.005000,	0.274787,	0.000524
1.035000,	0.281012,	0.000520
1.065000,	0.287238,	0.000515
1.095000,	0.293463,	0.000511
1.125000,	0.299687,	0.000506
1.155000,	0.305912,	0.000502
1.185000,	0.312138,	0.000497
1.215000,	0.318362,	0.000493
1.245000,	0.324588,	0.000488
1.275000,	0.330812,	0.000484
1.305000,	0.337037,	0.000479
1.335000,	0.343262,	0.000475
1.365000,	0.349487,	0.000470
1.395000,	0.355712,	0.000466
1.425000,	0.361937,	0.000461
1.455000,	0.368163,	0.000457
1.485000,	0.374387,	0.000452
0.015000,	0.190000,	0.000600
0.045000,	0.190000,	0.000600
0.075000,	0.190000,	0.000600
0.105000,	0.190000,	0.000600
0.135000,	0.190000,	0.000600
0.165000,	0.190000,	0.000600
0.195000,	0.190000,	0.000600
0.225000,	0.190000,	0.000600
0.255000,	0.190000,	0.000600
0.285000,	0.190000,	0.000600
0.315000,	0.190000,	0.000600
0.345000,	0.190000,	0.000600
0.375000,	0.190000,	0.000600
0.405000,	0.190000,	0.000600
0.435000,	0.190000,	0.000600
0.465000,	0.190000,	0.000600
0.495000,	0.191012,	0.000599
0.525000,	0.195062,	0.000596
0.555000,	0.201137,	0.000592
0.585000,	0.207212,	0.000587
0.615000,	0.213287,	0.000583
0.645000,	0.219362,	0.000578
0.675000,	0.225437,	0.000574
0.705000,	0.231513,	0.000569
0.735000,	0.237588,	0.000565
0.765000,	0.243663,	0.000560
0.795000,	0.249738,	0.000556
0.825000,	0.255812,	0.000551
0.855000,	0.261888,	0.000547
0.885000,	0.267962,	0.000542
0.915000,	0.274037,	0.000538
0.945000,	0.280112,	0.000533
0.975000,	0.286187,	0.000529
1.005000,	0.292263,	0.000524
1.035000,	0.298338,	0.000520
1.065000,	0.304413,	0.000515
1.095000,	0.310488,	0.000511
1.125000,	0.316562,	0.000506
1.155000,	0.322638,	0.000502
1.185000,	0.328713,	0.000497
1.215000,	0.334788,	0.000493
1.245000,	0.340862,	0.000488
1.275000,	0.346938,	0.000484
1.305000,	0.353013,	0.000479
1.335000,	0.359088,	0.000475
1.365000,	0.365162,	0.000470
1.395000,	0.371237,	0.000466
1.425000,	0.377312,	0.000461
1.455000,	0.383387,	0.000457
1.485000,	0.389463,	0.000452
0.015000,	0.210000,	0.000600
0.045000,	0.210000,	0.000600
0.075000,	0.210000,	0.000600
0.105000,	0.210000,	0.000600
0.135000,	0.210000,	0.000600
0.165000,	0.210000,	0.000600
0.195000,	0.210000,	0.000600
0.225000,	0.210000,	0.000600
0.255000,	0.210000,	0.000600
0.285000,	0.210000,	0.000600
0.315000,	0.210000,	0.000600
0.345000,	0.210000,	0.000600
0.375000,	0.210000,	0.000600
0.405000,	0.210000,	0.000600
0.435000,	0.210000,	0.000600
0.465000,	0.210000,	0.000600
0.495000,	0.210987,	0.000599
0.525000,	0.214938,	0.000596
0.555000,	0.220862,	0.000592
0.585000,	0.226788,	0.000587
0.615000,	0.232712,	0.000583
0.645000,	0.238638,	0.000578
0.675000,	0.244562,	0.000574
0.705000,	0.250487,	0.000569
0.735000,	0.256413,	0.000565
0.765000,	0.262338,	0.000560
0.795000,	0.268263,	0.000556
0.825000,	0.274188,	0.000551
0.855000,	0.280112,	0.000547
0.885000,	0.286038,	0.000542
0.915000,	0.291963,	0.000538
0.945000,	0.297887,	0.000533
0.975000,	0.303812,	0.000529
1.005000,	0.309737,	0.000524
1.035000,	0.315663,	0.000520
1.065000,	0.321588,	0.000515
1.095000,	0.327513,	0.000511
1.125000,	0.333437,	0.000506
1.155000,	0.339363,	0.000502
1.185000,	0.345287,	0.000497
1.215000,	0.351212,	0.000493
1.245000,	0.357137,	0.000488
1.275000,	0.363063,	0.000484
1.305000,	0.368988,	0.000479
1.335000,	0.374912,	0.000475
1.365000,	0.380837,	0.000470
1.395000,	0.386763,	0.000466
1.425000,	0.392688,	0.000461
1.455000,	0.398612,	0.000457
1.485000,	0.404537,	0.000452
0.015000,	0.230000,	0.000600
0.045000,	0.230000,	0.000600
0.075000,	0.230000,	0.000600
0.105000,	0.230000,	0.000600
0.135000,	0.230000,	0.000600
0.165000,	0.230000,	0.000600
0.195000,	0.230000,	0.000600
0.225000,	0.230000,	0.000600
0.255000,	0.230000,	0.000600
0.285000,	0.230000,	0.000600
0.315000,	0.230000,	0.000600
0.345000,	0.230000,	0.000600
0.375000,	0.230000,	0.000600
0.405000,	0.230000,	0.000600
0.435000,	0.230000,	0.000600
0.465000,	0.230000,	0.000600
0.495000,	0.230963,	0.000599
0.525000,	0.234812,	0.000596
0.555000,	0.240588,	0.000592
0.585000,	0.246362,	0.000587
0.615000,	0.252138,	0.000583
0.645000,	0.257912,	0.000578
0.675000,	0.263687,	0.000574
0.705000,	0.269462,	0.000569
0.735000,	0.275237,	0.000565
0.765000,	0.281012,	0.000560
0.795000,	0.286787,	0.000556
0.825000,	0.292563,	0.000551
0.855000,	0.298338,	0.000547
0.885000,	0.304113,	0.000542
0.915000,	0.309887,	0.000538
0.945000,	0.315663,	0.000533
0.975000,	0.321438,	0.000529
1.005000,	0.327213,	0.000524
1.035000,	0.332987,	0.000520
1.065000,	0.338763,	0.000515
1.095000,	0.344538,	0.000511
1.125000,	0.350313,	0.000506
1.155000,	0.356088,	0.000502
1.185000,	0.361862,	0.000497
1.215000,	0.367638,	0.000493
1.245000,	0.373413,	0.000488
1.275000,	0.379188,	0.000484
1.305000,	0.384962,	0.000479
1.335000,	0.390737,	0.000475
1.365000,	0.396512,	0.000470
1.395000,	0.402287,	0.000466
1.425000,	0.408062,	0.000461
1.455000,	0.413838,	0.000457
1.485000,	0.419612,	0.000452
0.015000,	0.250000,	0.000600
0.045000,	0.250000,	0.000600
0.075000,	0.250000,	0.000600
0.105000,	0.250000,	0.000600
0.135000,	0.250000,	0.000600
0.165000,	0.250000,	0.000600
0.195000,	0.250000,	0.000600
0.225000,	0.250000,	0.000600
0.255000,	0.250000,	0.000600
0.285000,	0.250000,	0.000600
0.315000,	0.250000,	0.000600
0.345000,	0.250000,	0.000600
0.375000,	0.250000,	0.000600
0.405000,	0.250000,	0.000600
0.435000,	0.250000,	0.000600
0.465000,	0.250000,	0.000600
0.495000,	0.250938,	0.000599
0.525000,	0.254688,	0.000596
0.555000,	0.260313,	0.000592
0.585000,	0.265937,	0.000587
0.615000,	0.271563,	0.000583
0.645000,	0.277188,	0.000578
0.675000,	0.282813,	0.000574
0.705000,	0.288438,	0.000569
0.735000,	0.294063,	0.000565
0.765000,	0.299687,	0.000560
0.795000,	0.305313,	0.000556
0.825000,	0.310937,	0.000551
0.855000,	0.316563,	0.000547
0.885000,	0.322188,	0.000542
0.915000,	0.327813,	0.000538
0.945000,	0.333437,	0.000533
0.975000,	0.339063,	0.000529
1.005000,	0.344688,	0.000524
1.035000,	0.350313,	0.000520
1.065000,	0.355938,	0.000515
1.095000,	0.361562,	0.000511
1.125000,	0.367188,	0.000506
1.155000,	0.372812,	0.000502
1.185000,	0.378437,	0.000497
1.215000,	0.384062,	0.000493
1.245000,	0.389688,	0.000488
1.275000,	0.395313,	0.000484
1.305000,	0.400938,	0.000479
1.335000,	0.406562,	0.000475
1.365000,	0.412188,	0.000470
1.395000,	0.417812,	0.000466
1.425000,	0.423437,	0.000461
1.455000,	0.429063,	0.000457
1.485000,	0.434688,	0.000452
0.015000,	0.270000,	0.000600
0.045000,	0.270000,	0.000600
0.075000,	0.270000,	0.000600
0.105000,	0.270000,	0.000600
0.135000,	0.270000,	0.000600
0.165000,	0.270000,	0.000600
0.195000,	0.270000,	0.000600
0.225000,	0.270000,	0.000600
0.255000,	0.270000,	0.000600
0.285000,	0.270000,	0.000600
0.315000,	0.270000,	0.000600
0.345000,	0.270000,	0.000600
0.375000,	0.270000,	0.000600
0.405000,	0.270000,	0.000600
0.435000,	0.270000,	0.000600
0.465000,	0.270000,	0.000600
0.495000,	0.270913,	0.000599
0.525000,	0.274563,	0.000596
0.555000,	0.280038,	0.000592
0.585000,	0.285513,	0.000587
0.615000,	0.290988,	0.000583
0.645000,	0.296462,	0.000578
0.675000,	0.301938,	0.000574
0.705000,	0.307412,	0.000569
0.735000,	0.312887,	0.000565
0.765000,	0.318362,	0.000560
0.795000,	0.323838,	0.000556
0.825000,	0.329313,	0.000551
0.855000,	0.334788,	0.000547
0.885000,	0.340263,	0.000542
0.915000,	0.345738,	0.000538
0.945000,	0.351212,	0.000533
0.975000,	0.356688,	0.000529
1.005000,	0.362162,	0.000524
1.035000,	0.367638,	0.000520
1.065000,	0.373113,	0.000515
1.095000,	0.378588,	0.000511
1.125000,	0.384062,	0.000506
1.155000,	0.389538,	0.000502
1.185000,	0.395013,	0.000497
1.215000,	0.400487,	0.000493
1.245000,	0.405963,	0.000488
1.275000,	0.411438,	0.000484
1.305000,	0.416913,	0.000479
1.335000,	0.422387,	0.000475
1.365000,	0.427862,	0.000470
1.395000,	0.433338,	0.000466
1.425000,	0.438812,	0.000461
1.455000,	0.444288,	0.000457
1.485000,	0.449762,	0.000452
0.015000,	0.290000,	0.000600
0.045000,	0.290000,	0.000600
0.075000,	0.290000,	0.000600
0.105000,	0.290000,	0.000600
0.135000,	0.290000,	0.000600
0.165000,	0.290000,	0.000600
0.195000,	0.290000,	0.000600
0.225000,	0.290000,	0.000600
0.255000,	0.290000,	0.000600
0.285000,	0.290000,	0.000600
0.315000,	0.290000,	0.000600
0.345000,	0.290000,	0.000600
0.375000,	0.290000,	0.000600
0.405000,	0.290000,	0.000600
0.435000,	0.290000,	0.000600
0.465000,	0.290000,	0.000600
0.495000,	0.290888,	0.000599
0.525000,	0.294438,	0.000596
0.555000,	0.299763,	0.000592
0.585000,	0.305088,	0.000587
0.615000,	0.310412,	0.000583
0.645000,	0.315738,	0.000578
0.675000,	0.321063,	0.000574
0.705000,	0.326387,	0.000569
0.735000,	0.331713,	0.000565
0.765000,	0.337037,	0.000560
0.795000,	0.342363,	0.000556
0.825000,	0.347687,	0.000551
0.855000,	0.353013,	0.000547
0.885000,	0.358337,	0.000542
0.915000,	0.363662,	0.000538
0.945000,	0.368988,	0.000533
0.975000,	0.374313,	0.000529
1.005000,	0.379638,	0.000524
1.035000,	0.384962,	0.000520
1.065000,	0.390288,	0.000515
1.095000,	0.395612,	0.000511
1.125000,	0.400937,	0.000506
1.155000,	0.406262,	0.000502
1.185000,	0.411587,	0.000497
1.215000,	0.416913,	0.000493
1.245000,	0.422238,	0.000488
1.275000,	0.427563,	0.000484
1.305000,	0.432887,	0.000479
1.335000,	0.438212,	0.000475
1.365000,	0.443537,	0.000470
1.395000,	0.448862,	0.000466
1.425000,	0.454187,	0.000461
1.455000,	0.459512,	0.000457
1.485000,	0.464838,	0.000452
0.015000,	0.310000,	0.000600
0.045000,	0.310000,	0.000600
0.075000,	0.310000,	0.000600
0.105000,	0.310000,	0.000600
0.135000,	0.310000,	0.000600
0.165000,	0.310000,	0.000600
0.195000,	0.310000,	0.000600
0.225000,	0.310000,	0.000600
0.255000,	0.310000,	0.000600
0.285000,	0.310000,	0.000600
0.315000,	0.310000,	0.000600
0.345000,	0.310000,	0.000600
0.375000,	0.310000,	0.000600
0.405000,	0.310000,	0.000600
0.435000,	0.310000,	0.000600
0.465000,	0.310000,	0.000600
0.495000,	0.310862,	0.000599
0.525000,	0.314312,	0.000596
0.555000,	0.319488,	0.000592
0.585000,	0.324662,	0.000587
0.615000,	0.329838,	0.000583
0.645000,	0.335012,	0.000578
0.675000,	0.340187,	0.000574
0.705000,	0.345363,	0.000569
0.735000,	0.350538,	0.000565
0.765000,	0.355712,	0.000560
0.795000,	0.360887,	0.000556
0.825000,	0.366063,	0.000551
0.855000,	0.371237,	0.000547
0.885000,	0.376412,	0.000542
0.915000,	0.381587,	0.000538
0.945000,	0.386763,	0.000533
0.975000,	0.391938,	0.000529
1.005000,	0.397113,	0.000524
1.035000,	0.402288,	0.000520
1.065000,	0.407463,	0.000515
1.095000,	0.412637,	0.000511
1.125000,	0.417812,	0.000506
1.155000,	0.422988,	0.000502
1.185000,	0.428163,	0.000497
1.215000,	0.433337,	0.000493
1.245000,	0.438513,	0.000488
1.275000,	0.443688,	0.000484
1.305000,	0.448862,	0.000479
1.335000,	0.454037,	0.000475
1.365000,	0.459213,	0.000470
1.395000,	0.464388,	0.000466
1.425000,	0.469562,	0.000461
1.455000,	0.474738,	0.000457
1.485000,	0.479912,	0.000452
0.015000,	0.330000,	0.000600
0.045000,	0.330000,	0.000600
0.075000,	0.330000,	0.000600
0.105000,	0.330000,	0.000600
0.135000,	0.330000,	0.000600
0.165000,	0.330000,	0.000600
0.195000,	0.330000,	0.000600
0.225000,	0.330000,	0.000600
0.255000,	0.330000,	0.000600
0.285000,	0.330000,	0.000600
0.315000,	0.330000,	0.000600
0.345000,	0.330000,	0.000600
0.375000,	0.330000,	0.000600
0.405000,	0.330000,	0.000600
0.435000,	0.330000,	0.000600
0.465000,	0.330000,	0.000600
0.495000,	0.330838,	0.000599
0.525000,	0.334188,	0.000596
0.555000,	0.339212,	0.000592
0.585000,	0.344238,	0.000587
0.615000,	0.349262,	0.000583
0.645000,	0.354287,	0.000578
0.675000,	0.359312,	0.000574
0.705000,	0.364338,	0.000569
0.735000,	0.369363,	0.000565
0.765000,	0.374387,	0.000560
0.795000,	0.379413,	0.000556
0.825000,	0.384437,	0.000551
0.855000,	0.389463,	0.000547
0.885000,	0.394487,	0.000542
0.915000,	0.399513,	0.000538
0.945000,	0.404537,	0.000533
0.975000,	0.409562,	0.000529
1.005000,	0.414587,	0.000524
1.035000,	0.419612,	0.000520
1.065000,	0.424638,	0.000515
1.095000,	0.429663,	0.000511
1.125000,	0.434688,	0.000506
1.155000,	0.439713,	0.000502
1.185000,	0.444738,	0.000497
1.215000,	0.449763,	0.000493
1.245000,	0.454788,	0.000488
1.275000,	0.459813,	0.000484
1.305000,	0.464838,	0.000479
1.335000,	0.469863,	0.000475
1.365000,	0.474888,	0.000470
1.395000,	0.479913,	0.000466
1.425000,	0.484938,	0.000461
1.455000,	0.489962,	0.000457
1.485000,	0.494988,	0.000452
0.015000,	0.350000,	0.000600
0.045000,	0.350000,	0.000600
0.075000,	0.350000,	0.000600
0.105000,	0.350000,	0.000600
0.135000,	0.350000,	0.000600
0.165000,	0.350000,	0.000600
0.195000,	0.350000,	0.000600
0.225000,	0.350000,	0.000600
0.255000,	0.350000,	0.000600
0.285000,	0.350000,	0.000600
0.315000,	0.350000,	0.000600
0.345000,	0.350000,	0.000600
0.375000,	0.350000,	0.000600
0.405000,	0.350000,	0.000600
0.435000,	0.350000,	0.000600
0.465000,	0.350000,	0.000600
0.495000,	0.350812,	0.000599
0.525000,	0.354063,	0.000596
0.555000,	0.358937,	0.000592
0.585000,	0.363812,	0.000587
0.615000,	0.368687,	0.000583
0.645000,	0.373562,	0.000578
0.675000,	0.378437,	0.000574
0.705000,	0.383313,	0.000569
0.735000,	0.388188,	0.000565
0.765000,	0.393062,	0.000560
0.795000,	0.397937,	0.000556
0.825000,	0.402812,	0.000551
0.855000,	0.407687,	0.000547
0.885000,	0.412562,	0.000542
0.915000,	0.417438,	0.000538
0.945000,	0.422313,	0.000533
0.975000,	0.427187,	0.000529
1.005000,	0.432063,	0.000524
1.035000,	0.436938,	0.000520
1.065000,	0.441812,	0.000515
1.095000,	0.446688,	0.000511
1.125000,	0.451562,	0.000506
1.155000,	0.456437,	0.000502
1.185000,	0.461313,	0.000497
1.215000,	0.466187,	0.000493
1.245000,	0.471063,	0.000488
1.275000,	0.475938,	0.000484
1.305000,	0.480812,	0.000479
1.335000,	0.485687,	0.000475
1.365000,	0.490563,	0.000470
1.395000,	0.495437,	0.000466
1.425000,	0.500312,	0.000461
1.455000,	0.505188,	0.000457
1.485000,	0.510063,	0.000452
0.015000,	0.370000,	0.000600
0.045000,	0.370000,	0.000600
0.075000,	0.370000,	0.000600
0.105000,	0.370000,	0.000600
0.135000,	0.370000,	0.000600
0.165000,	0.370000,	0.000600
0.195000,	0.370000,	0.000600
0.225000,	0.370000,	0.000600
0.255000,	0.370000,	0.000600
0.285000,	0.370000,	0.000600
0.315000,	0.370000,	0.000600
0.345000,	0.370000,	0.000600
0.375000,	0.370000,	0.000600
0.405000,	0.370000,	0.000600
0.435000,	0.370000,	0.000600
0.465000,	0.370000,	0.000600
0.495000,	0.370788,	0.000599
0.525000,	0.373937,	0.000596
0.555000,	0.378662,	0.000592
0.585000,	0.383387,	0.000587
0.615000,	0.388113,	0.000583
0.645000,	0.392837,	0.000578
0.675000,	0.397562,	0.000574
0.705000,	0.402288,	0.000569
0.735000,	0.407012,	0.000565
0.765000,	0.411737,	0.000560
0.795000,	0.416463,	0.000556
0.825000,	0.421187,	0.000551
0.855000,	0.425913,	0.000547
0.885000,	0.430638,	0.000542
0.915000,	0.435362,	0.000538
0.945000,	0.440088,	0.000533
0.975000,	0.444812,	0.000529
1.005000,	0.449538,	0.000524
1.035000,	0.454263,	0.000520
1.065000,	0.458988,	0.000515
1.095000,	0.463712,	0.000511
1.125000,	0.468438,	0.000506
1.155000,	0.473163,	0.000502
1.185000,	0.477888,	0.000497
1.215000,	0.482612,	0.000493
1.245000,	0.487337,	0.000488
1.275000,	0.492063,	0.000484
1.305000,	0.496788,	0.000479
1.335000,	0.501512,	0.000475
1.365000,	0.506237,	0.000470
1.395000,	0.510962,	0.000466
1.425000,	0.515688,	0.000461
1.455000,	0.520413,	0.000457
1.485000,	0.525138,	0.000452
0.015000,	0.390000,	0.000600
0.045000,	0.390000,	0.000600
0.075000,	0.390000,	0.000600
0.105000,	0.390000,	0.000600
0.135000,	0.390000,	0.000600
0.165000,	0.390000,	0.000600
0.195000,	0.390000,	0.000600
0.225000,	0.390000,	0.000600
0.255000,	0.390000,	0.000600
0.285000,	0.390000,	0.000600
0.315000,	0.390000,	0.000600
0.345000,	0.390000,	0.000600
0.375000,	0.390000,	0.000600
0.405000,	0.390000,	0.000600
0.435000,	0.390000,	0.000600
0.465000,	0.390000,	0.000600
0.495000,	0.390763,	0.000599
0.525000,	0.393813,	0.000596
0.555000,	0.398388,	0.000592
0.585000,	0.402963,	0.000587
0.615000,	0.407537,	0.000583
0.645000,	0.412112,	0.000578
0.675000,	0.416687,	0.000574
0.705000,	0.421262,	0.000569
0.735000,	0.425838,	0.000565
0.765000,	0.430412,	0.000560
0.795000,	0.434988,	0.000556
0.825000,	0.439562,	0.000551
0.855000,	0.444138,	0.000547
0.885000,	0.448713,	0.000542
0.915000,	0.453287,	0.000538
0.945000,	0.457863,	0.000533
0.975000,	0.462437,	0.000529
1.005000,	0.467012,	0.000524
1.035000,	0.471587,	0.000520
1.065000,	0.476163,	0.000515
1.095000,	0.480737,	0.000511
1.125000,	0.485313,	0.000506
1.155000,	0.489888,	0.000502
1.185000,	0.494462,	0.000497
1.215000,	0.499038,	0.000493
1.245000,	0.503613,	0.000488
1.275000,	0.508188,	0.000484
1.305000,	0.512763,	0.000479
1.335000,	0.517338,	0.000475
1.365000,	0.521913,	0.000470
1.395000,	0.526487,	0.000466
1.425000,	0.531062,	0.000461
1.455000,	0.535638,	0.000457
1.485000,	0.540212,	0.000452
0.015000,	0.410000,	0.000600
0.045000,	0.410000,	0.000600
0.075000,	0.410000,	0.000600
0.105000,	0.410000,	0.000600
0.135000,	0.410000,	0.000600
0.165000,	0.410000,	0.000600
0.195000,	0.410000,	0.000600
0.225000,	0.410000,	0.000600
0.255000,	0.410000,	0.000600
0.285000,	0.410000,	0.000600
0.315000,	0.410000,	0.000600
0.345000,	0.410000,	0.000600
0.375000,	0.410000,	0.000600
0.405000,	0.410000,	0.000600
0.435000,	0.410000,	0.000600
0.465000,	0.410000,	0.000600
0.495000,	0.410737,	0.000599
0.525000,	0.413687,	0.000596
0.555000,	0.418112,	0.000592
0.585000,	0.422537,	0.000587
0.615000,	0.426963,	0.000583
0.645000,	0.431387,	0.000578
0.675000,	0.435812,	0.000574
0.705000,	0.440237,	0.000569
0.735000,	0.444663,	0.000565
0.765000,	0.449088,	0.000560
0.795000,	0.453512,	0.000556
0.825000,	0.457937,	0.000551
0.855000,	0.462363,	0.000547
0.885000,	0.466788,	0.000542
0.915000,	0.471213,	0.000538