TITLE = "MeshVolumeStats"
VARIABLES = "X", "Y", "VOL"
ZONE I=400, J=200, DATAPACKING=POINT
0.003750,	0.002473,	0.000037
0.011250,	0.002444,	0.000037
0.018750,	0.002414,	0.000036
0.026250,	0.002386,	0.000036
0.033750,	0.002358,	0.000035
0.041250,	0.002330,	0.000035
0.048750,	0.002303,	0.000035
0.056250,	0.002276,	0.000034
0.063750,	0.002250,	0.000034
0.071250,	0.002224,	0.000033
0.078750,	0.002199,	0.000033
0.086250,	0.002174,	0.000033
0.093750,	0.002149,	0.000032
0.101250,	0.002125,	0.000032
0.108750,	0.002102,	0.000032
0.116250,	0.002079,	0.000031
0.123750,	0.002056,	0.000031
0.131250,	0.002034,	0.000031
0.138750,	0.002012,	0.000030
0.146250,	0.001991,	0.000030
0.153750,	0.001970,	0.000030
0.161250,	0.001949,	0.000029
0.168750,	0.001929,	0.000029
0.176250,	0.001910,	0.000029
0.183750,	0.001891,	0.000028
0.191250,	0.001872,	0.000028
0.198750,	0.001854,	0.000028
0.206250,	0.001836,	0.000028
0.213750,	0.001819,	0.000027
0.221250,	0.001802,	0.000027
0.228750,	0.001785,	0.000027
0.236250,	0.001770,	0.000027
0.243750,	0.001754,	0.000026
0.251250,	0.001739,	0.000026
0.258750,	0.001724,	0.000026
0.266250,	0.001710,	0.000026
0.273750,	0.001696,	0.000025
0.281250,	0.001683,	0.000025
0.288750,	0.001670,	0.000025
0.296250,	0.001658,	0.000025
0.303750,	0.001646,	0.000025
0.311250,	0.001635,	0.000025
0.318750,	0.001623,	0.000024
0.326250,	0.001613,	0.000024
0.333750,	0.001602,	0.000024
0.341250,	0.001593,	0.000024
0.348750,	0.001584,	0.000024
0.356250,	0.001575,	0.000024
0.363750,	0.001567,	0.000023
0.371250,	0.001558,	0.000023
0.378750,	0.001551,	0.000023
0.386250,	0.001544,	0.000023
0.393750,	0.001538,	0.000023
0.401250,	0.001531,	0.000023
0.408750,	0.001526,	0.000023
0.416250,	0.001521,	0.000023
0.423750,	0.001516,	0.000023
0.431250,	0.001512,	0.000023
0.438750,	0.001507,	0.000023
0.446250,	0.001504,	0.000023
0.453750,	0.001501,	0.000023
0.461250,	0.001498,	0.000022
0.468750,	0.001497,	0.000022
0.476250,	0.001495,	0.000022
0.483750,	0.001494,	0.000022
0.491250,	0.001493,	0.000022
0.498750,	0.001492,	0.000022
0.506250,	0.001493,	0.000022
0.513750,	0.001494,	0.000022
0.521250,	0.001495,	0.000022
0.528750,	0.001496,	0.000022
0.536250,	0.001498,	0.000022
0.543750,	0.001500,	0.000023
0.551250,	0.001503,	0.000023
0.558750,	0.001506,	0.000023
0.566250,	0.001510,	0.000023
0.573750,	0.001514,	0.000023
0.581250,	0.001519,	0.000023
0.588750,	0.001524,	0.000023
0.596250,	0.001530,	0.000023
0.603750,	0.001535,	0.000023
0.611250,	0.001542,	0.000023
0.618750,	0.001549,	0.000023
0.626250,	0.001556,	0.000023
0.633750,	0.001564,	0.000023
0.641250,	0.001572,	0.000024
0.648750,	0.001580,	0.000024
0.656250,	0.001590,	0.000024
0.663750,	0.001599,	0.000024
0.671250,	0.001609,	0.000024
0.678750,	0.001620,	0.000024
0.686250,	0.001631,	0.000024
0.693750,	0.001642,	0.000025
0.701250,	0.001654,	0.000025
0.708750,	0.001666,	0.000025
0.716250,	0.001679,	0.000025
0.723750,	0.001692,	0.000025
0.731250,	0.001705,	0.000026
0.738750,	0.001720,	0.000026
0.746250,	0.001734,	0.000026
0.753750,	0.001749,	0.000026
0.761250,	0.001764,	0.000026
0.768750,	0.001780,	0.000027
0.776250,	0.001796,	0.000027
0.783750,	0.001813,	0.000027
0.791250,	0.001830,	0.000027
0.798750,	0.001848,	0.000028
0.806250,	0.001866,	0.000028
0.813750,	0.001884,	0.000028
0.821250,	0.001904,	0.000029
0.828750,	0.001923,	0.000029
0.836250,	0.001942,	0.000029
0.843750,	0.001963,	0.000029
0.851250,	0.001984,	0.000030
0.858750,	0.002005,	0.000030
0.866250,	0.002026,	0.000030
0.873750,	0.002048,	0.000031
0.881250,	0.002071,	0.000031
0.888750,	0.002094,	0.000031
0.896250,	0.002118,	0.000032
0.903750,	0.002142,	0.000032
0.911250,	0.002166,	0.000032
0.918750,	0.002190,	0.000033
0.926250,	0.002216,	0.000033
0.933750,	0.002242,	0.000034
0.941250,	0.002267,	0.000034
0.948750,	0.002294,	0.000034
0.956250,	0.002321,	0.000035
0.963750,	0.002348,	0.000035
0.971250,	0.002377,	0.000036
0.978750,	0.002405,	0.000036
0.986250,	0.002433,	0.000037
0.993750,	0.002463,	0.000037
1.001250,	0.002483,	0.000037
1.008750,	0.002488,	0.000037
1.016250,	0.002488,	0.000037
1.023750,	0.002488,	0.000037
1.031250,	0.002488,	0.000037
1.038750,	0.002488,	0.000037
1.046250,	0.002488,	0.000037
1.053750,	0.002488,	0.000037
1.061250,	0.002488,	0.000037
1.068750,	0.002488,	0.000037
1.076250,	0.002488,	0.000037
1.083750,	0.002488,	0.000037
1.091250,	0.002488,	0.000037
1.098750,	0.002488,	0.000037
1.106250,	0.002488,	0.000037
1.113750,	0.002488,	0.000037
1.121250,	0.002488,	0.000037
1.128750,	0.002488,	0.000037
1.136250,	0.002488,	0.000037
1.143750,	0.002488,	0.000037
1.151250,	0.002488,	0.000037
1.158750,	0.002488,	0.000037
1.166250,	0.002488,	0.000037
1.173750,	0.002488,	0.000037
1.181250,	0.002488,	0.000037
1.188750,	0.002488,	0.000037
1.196250,	0.002488,	0.000037
1.203750,	0.002488,	0.000037
1.211250,	0.002488,	0.000037
1.218750,	0.002488,	0.000037
1.226250,	0.002488,	0.000037
1.233750,	0.002488,	0.000037
1.241250,	0.002488,	0.000037
1.248750,	0.002488,	0.000037
1.256250,	0.002488,	0.000037
1.263750,	0.002488,	0.000037
1.271250,	0.002488,	0.000037
1.278750,	0.002488,	0.000037
1.286250,	0.002488,	0.000037
1.293750,	0.002488,	0.000037
1.301250,	0.002488,	0.000037
1.308750,	0.002488,	0.000037
1.316250,	0.002488,	0.000037
1.323750,	0.002488,	0.000037
1.331250,	0.002488,	0.000037
1.338750,	0.002488,	0.000037
1.346250,	0.002488,	0.000037
1.353750,	0.002488,	0.000037
1.361250,	0.002488,	0.000037
1.368750,	0.002488,	0.000037
1.376250,	0.002488,	0.000037
1.383750,	0.002488,	0.000037
1.391250,	0.002488,	0.000037
1.398750,	0.002488,	0.000037
1.406250,	0.002488,	0.000037
1.413750,	0.002488,	0.000037
1.421250,	0.002488,	0.000037
1.428750,	0.002488,	0.000037
1.436250,	0.002488,	0.000037
1.443750,	0.002488,	0.000037
1.451250,	0.002488,	0.000037
1.458750,	0.002488,	0.000037
1.466250,	0.002488,	0.000037
1.473750,	0.002488,	0.000037
1.481250,	0.002488,	0.000037
1.488750,	0.002488,	0.000037
1.496250,	0.002488,	0.000037
1.503750,	0.002488,	0.000037
1.511250,	0.002488,	0.000037
1.518750,	0.002488,	0.000037
1.526250,	0.002488,	0.000037
1.533750,	0.002488,	0.000037
1.541250,	0.002488,	0.000037
1.548750,	0.002488,	0.000037
1.556250,	0.002488,	0.000037
1.563750,	0.002488,	0.000037
1.571250,	0.002488,	0.000037
1.578750,	0.002488,	0.000037
1.586250,	0.002488,	0.000037
1.593750,	0.002488,	0.000037
1.601250,	0.002488,	0.000037
1.608750,	0.002488,	0.000037
1.616250,	0.002488,	0.000037
1.623750,	0.002488,	0.000037
1.631250,	0.002488,	0.000037
1.638750,	0.002488,	0.000037
1.646250,	0.002488,	0.000037
1.653750,	0.002488,	0.000037
1.661250,	0.002488,	0.000037
1.668750,	0.002488,	0.000037
1.676250,	0.002488,	0.000037
1.683750,	0.002488,	0.000037
1.691250,	0.002488,	0.000037
1.698750,	0.002488,	0.000037
1.706250,	0.002488,	0.000037
1.713750,	0.002488,	0.000037
1.721250,	0.002488,	0.000037
1.728750,	0.002488,	0.000037
1.736250,	0.002488,	0.000037
1.743750,	0.002488,	0.000037
1.751250,	0.002488,	0.000037
1.758750,	0.002488,	0.000037
1.766250,	0.002488,	0.000037
1.773750,	0.002488,	0.000037
1.781250,	0.002488,	0.000037
1.788750,	0.002488,	0.000037
1.796250,	0.002488,	0.000037
1.803750,	0.002488,	0.000037
1.811250,	0.002488,	0.000037
1.818750,	0.002488,	0.000037
1.826250,	0.002488,	0.000037
1.833750,	0.002488,	0.000037
1.841250,	0.002488,	0.000037
1.848750,	0.002488,	0.000037
1.856250,	0.002488,	0.000037
1.863750,	0.002488,	0.000037
1.871250,	0.002488,	0.000037
1.878750,	0.002488,	0.000037
1.886250,	0.002488,	0.000037
1.893750,	0.002488,	0.000037
1.901250,	0.002488,	0.000037
1.908750,	0.002488,	0.000037
1.916250,	0.002488,	0.000037
1.923750,	0.002488,	0.000037
1.931250,	0.002488,	0.000037
1.938750,	0.002488,	0.000037
1.946250,	0.002488,	0.000037
1.953750,	0.002488,	0.000037
1.961250,	0.002488,	0.000037
1.968750,	0.002488,	0.000037
1.976250,	0.002488,	0.000037
1.983750,	0.002488,	0.000037
1.991250,	0.002488,	0.000037
1.998750,	0.002488,	0.000037
2.006250,	0.002488,	0.000037
2.013750,	0.002488,	0.000037
2.021250,	0.002488,	0.000037
2.028750,	0.002488,	0.000037
2.036250,	0.002488,	0.000037
2.043750,	0.002488,	0.000037
2.051250,	0.002488,	0.000037
2.058750,	0.002488,	0.000037
2.066250,	0.002488,	0.000037
2.073750,	0.002488,	0.000037
2.081250,	0.002488,	0.000037
2.088750,	0.002488,	0.000037
2.096250,	0.002488,	0.000037
2.103750,	0.002488,	0.000037
2.111250,	0.002488,	0.000037
2.118750,	0.002488,	0.000037
2.126250,	0.002488,	0.000037
2.133750,	0.002488,	0.000037
2.141250,	0.002488,	0.000037
2.148750,	0.002488,	0.000037
2.156250,	0.002488,	0.000037
2.163750,	0.002488,	0.000037
2.171250,	0.002488,	0.000037
2.178750,	0.002488,	0.000037
2.186250,	0.002488,	0.000037
2.193750,	0.002488,	0.000037
2.201250,	0.002488,	0.000037
2.208750,	0.002488,	0.000037
2.216250,	0.002488,	0.000037
2.223750,	0.002488,	0.000037
2.231250,	0.002488,	0.000037
2.238750,	0.002488,	0.000037
2.246250,	0.002488,	0.000037
2.253750,	0.002488,	0.000037
2.261250,	0.002488,	0.000037
2.268750,	0.002488,	0.000037
2.276250,	0.002488,	0.000037
2.283750,	0.002488,	0.000037
2.291250,	0.002488,	0.000037
2.298750,	0.002488,	0.000037
2.306250,	0.002488,	0.000037
2.313750,	0.002488,	0.000037
2.321250,	0.002488,	0.000037
2.328750,	0.002488,	0.000037
2.336250,	0.002488,	0.000037
2.343750,	0.002488,	0.000037
2.351250,	0.002488,	0.000037
2.358750,	0.002488,	0.000037
2.366250,	0.002488,	0.000037
2.373750,	0.002488,	0.000037
2.381250,	0.002488,	0.000037
2.388750,	0.002488,	0.000037
2.396250,	0.002488,	0.000037
2.403750,	0.002488,	0.000037
2.411250,	0.002488,	0.000037
2.418750,	0.002488,	0.000037
2.426250,	0.002488,	0.000037
2.433750,	0.002488,	0.000037
2.441250,	0.002488,	0.000037
2.448750,	0.002488,	0.000037
2.456250,	0.002488,	0.000037
2.463750,	0.002488,	0.000037
2.471250,	0.002488,	0.000037
2.478750,	0.002488,	0.000037
2.486250,	0.002488,	0.000037
2.493750,	0.002488,	0.000037
2.501250,	0.002488,	0.000037
2.508750,	0.002488,	0.000037
2.516250,	0.002488,	0.000037
2.523750,	0.002488,	0.000037
2.531250,	0.002488,	0.000037
2.538750,	0.002488,	0.000037
2.546250,	0.002488,	0.000037
2.553750,	0.002488,	0.000037
2.561250,	0.002488,	0.000037
2.568750,	0.002488,	0.000037
2.576250,	0.002488,	0.000037
2.583750,	0.002488,	0.000037
2.591250,	0.002488,	0.000037
2.598750,	0.002488,	0.000037
2.606250,	0.002488,	0.000037
2.613750,	0.002488,	0.000037
2.621250,	0.002488,	0.000037
2.628750,	0.002488,	0.000037
2.636250,	0.002488,	0.000037
2.643750,	0.002488,	0.000037
2.651250,	0.002488,	0.000037
2.658750,	0.002488,	0.000037
2.666250,	0.002488,	0.000037
2.673750,	0.002488,	0.000037
2.681250,	0.002488,	0.000037
2.688750,	0.002488,	0.000037
2.696250,	0.002488,	0.000037
2.703750,	0.002488,	0.000037
2.711250,	0.002488,	0.000037
2.718750,	0.002488,	0.000037
2.726250,	0.002488,	0.000037
2.733750,	0.002488,	0.000037
2.741250,	0.002488,	0.000037
2.748750,	0.002488,	0.000037
2.756250,	0.002488,	0.000037
2.763750,	0.002488,	0.000037
2.771250,	0.002488,	0.000037
2.778750,	0.002488,	0.000037
2.786250,	0.002488,	0.000037
2.793750,	0.002488,	0.000037
2.801250,	0.002488,	0.000037
2.808750,	0.002488,	0.000037
2.816250,	0.002488,	0.000037
2.823750,	0.002488,	0.000037
2.831250,	0.002488,	0.000037
2.838750,	0.002488,	0.000037
2.846250,	0.002488,	0.000037
2.853750,	0.002488,	0.000037
2.861250,	0.002488,	0.000037
2.868750,	0.002488,	0.000037
2.876250,	0.002488,	0.000037
2.883750,	0.002488,	0.000037
2.891250,	0.002488,	0.000037
2.898750,	0.002488,	0.000037
2.906250,	0.002488,	0.000037
2.913750,	0.002488,	0.000037
2.921250,	0.002488,	0.000037
2.928750,	0.002488,	0.000037
2.936250,	0.002488,	0.000037
2.943750,	0.002488,	0.000037
2.951250,	0.002488,	0.000037
2.958750,	0.002488,	0.000037
2.966250,	0.002488,	0.000037
2.973750,	0.002488,	0.000037
2.981250,	0.002488,	0.000037
2.988750,	0.002488,	0.000037
2.996250,	0.002488,	0.000037
0.003750,	0.007418,	0.000037
0.011250,	0.007330,	0.000037
0.018750,	0.007243,	0.000036
0.026250,	0.007157,	0.000036
0.033750,	0.007073,	0.000035
0.041250,	0.006991,	0.000035
0.048750,	0.006909,	0.000035
0.056250,	0.006829,	0.000034
0.063750,	0.006750,	0.000034
0.071250,	0.006673,	0.000033
0.078750,	0.006597,	0.000033
0.086250,	0.006522,	0.000033
0.093750,	0.006448,	0.000032
0.101250,	0.006376,	0.000032
0.108750,	0.006305,	0.000032
0.116250,	0.006236,	0.000031
0.123750,	0.006168,	0.000031
0.131250,	0.006101,	0.000031
0.138750,	0.006036,	0.000030
0.146250,	0.005972,	0.000030
0.153750,	0.005909,	0.000030
0.161250,	0.005848,	0.000029
0.168750,	0.005788,	0.000029
0.176250,	0.005729,	0.000029
0.183750,	0.005672,	0.000028
0.191250,	0.005616,	0.000028
0.198750,	0.005562,	0.000028
0.206250,	0.005508,	0.000028
0.213750,	0.005456,	0.000027
0.221250,	0.005405,	0.000027
0.228750,	0.005356,	0.000027
0.236250,	0.005308,	0.000027
0.243750,	0.005262,	0.000026
0.251250,	0.005217,	0.000026
0.258750,	0.005173,	0.000026
0.266250,	0.005130,	0.000026
0.273750,	0.005089,	0.000025
0.281250,	0.005049,	0.000025
0.288750,	0.005011,	0.000025
0.296250,	0.004973,	0.000025
0.303750,	0.004938,	0.000025
0.311250,	0.004903,	0.000025
0.318750,	0.004870,	0.000024
0.326250,	0.004838,	0.000024
0.333750,	0.004808,	0.000024
0.341250,	0.004779,	0.000024
0.348750,	0.004751,	0.000024
0.356250,	0.004725,	0.000024
0.363750,	0.004700,	0.000023
0.371250,	0.004676,	0.000023
0.378750,	0.004653,	0.000023
0.386250,	0.004632,	0.000023
0.393750,	0.004613,	0.000023
0.401250,	0.004594,	0.000023
0.408750,	0.004577,	0.000023
0.416250,	0.004562,	0.000023
0.423750,	0.004547,	0.000023
0.431250,	0.004534,	0.000023
0.438750,	0.004522,	0.000023
0.446250,	0.004512,	0.000023
0.453750,	0.004503,	0.000023
0.461250,	0.004496,	0.000022
0.468750,	0.004489,	0.000022
0.476250,	0.004484,	0.000022
0.483750,	0.004481,	0.000022
0.491250,	0.004479,	0.000022
0.498750,	0.004478,	0.000022
0.506250,	0.004478,	0.000022
0.513750,	0.004480,	0.000022
0.521250,	0.004483,	0.000022
0.528750,	0.004488,	0.000022
0.536250,	0.004494,	0.000022
0.543750,	0.004501,	0.000023
0.551250,	0.004509,	0.000023
0.558750,	0.004519,	0.000023
0.566250,	0.004530,	0.000023
0.573750,	0.004543,	0.000023
0.581250,	0.004557,	0.000023
0.588750,	0.004572,	0.000023
0.596250,	0.004588,	0.000023
0.603750,	0.004606,	0.000023
0.611250,	0.004625,	0.000023
0.618750,	0.004646,	0.000023
0.626250,	0.004668,	0.000023
0.633750,	0.004691,	0.000023
0.641250,	0.004716,	0.000024
0.648750,	0.004742,	0.000024
0.656250,	0.004769,	0.000024
0.663750,	0.004798,	0.000024
0.671250,	0.004828,	0.000024
0.678750,	0.004859,	0.000024
0.686250,	0.004892,	0.000024
0.693750,	0.004926,	0.000025
0.701250,	0.004961,	0.000025
0.708750,	0.004998,	0.000025
0.716250,	0.005036,	0.000025
0.723750,	0.005076,	0.000025
0.731250,	0.005116,	0.000026
0.738750,	0.005158,	0.000026
0.746250,	0.005202,	0.000026
0.753750,	0.005247,	0.000026
0.761250,	0.005293,	0.000026
0.768750,	0.005340,	0.000027
0.776250,	0.005389,	0.000027
0.783750,	0.005439,	0.000027
0.791250,	0.005491,	0.000027
0.798750,	0.005543,	0.000028
0.806250,	0.005598,	0.000028
0.813750,	0.005653,	0.000028
0.821250,	0.005710,	0.000029
0.828750,	0.005768,	0.000029
0.836250,	0.005828,	0.000029
0.843750,	0.005889,	0.000029
0.851250,	0.005951,	0.000030
0.858750,	0.006014,	0.000030
0.866250,	0.006079,	0.000030
0.873750,	0.006146,	0.000031
0.881250,	0.006213,	0.000031
0.888750,	0.006282,	0.000031
0.896250,	0.006353,	0.000032
0.903750,	0.006424,	0.000032
0.911250,	0.006497,	0.000032
0.918750,	0.006571,	0.000033
0.926250,	0.006647,	0.000033
0.933750,	0.006724,	0.000034
0.941250,	0.006803,	0.000034
0.948750,	0.006882,	0.000034
0.956250,	0.006963,	0.000035
0.963750,	0.007046,	0.000035
0.971250,	0.007130,	0.000036
0.978750,	0.007215,	0.000036
0.986250,	0.007301,	0.000037
0.993750,	0.007389,	0.000037
1.001250,	0.007448,	0.000037
1.008750,	0.007463,	0.000037
1.016250,	0.007463,	0.000037
1.023750,	0.007463,	0.000037
1.031250,	0.007463,	0.000037
1.038750,	0.007463,	0.000037
1.046250,	0.007463,	0.000037
1.053750,	0.007463,	0.000037
1.061250,	0.007463,	0.000037
1.068750,	0.007463,	0.000037
1.076250,	0.007463,	0.000037
1.083750,	0.007463,	0.000037
1.091250,	0.007463,	0.000037
1.098750,	0.007463,	0.000037
1.106250,	0.007463,	0.000037
1.113750,	0.007463,	0.000037
1.121250,	0.007463,	0.000037
1.128750,	0.007463,	0.000037
1.136250,	0.007463,	0.000037
1.143750,	0.007463,	0.000037
1.151250,	0.007463,	0.000037
1.158750,	0.007463,	0.000037
1.166250,	0.007463,	0.000037
1.173750,	0.007463,	0.000037
1.181250,	0.007463,	0.000037
1.188750,	0.007463,	0.000037
1.196250,	0.007463,	0.000037
1.203750,	0.007463,	0.000037
1.211250,	0.007463,	0.000037
1.218750,	0.007463,	0.000037
1.226250,	0.007463,	0.000037
1.233750,	0.007463,	0.000037
1.241250,	0.007463,	0.000037
1.248750,	0.007463,	0.000037
1.256250,	0.007463,	0.000037
1.263750,	0.007463,	0.000037
1.271250,	0.007463,	0.000037
1.278750,	0.007463,	0.000037
1.286250,	0.007463,	0.000037
1.293750,	0.007463,	0.000037
1.301250,	0.007463,	0.000037
1.308750,	0.007463,	0.000037
1.316250,	0.007463,	0.000037
1.323750,	0.007463,	0.000037
1.331250,	0.007463,	0.000037
1.338750,	0.007463,	0.000037
1.346250,	0.007463,	0.000037
1.353750,	0.007463,	0.000037
1.361250,	0.007463,	0.000037
1.368750,	0.007463,	0.000037
1.376250,	0.007463,	0.000037
1.383750,	0.007463,	0.000037
1.391250,	0.007463,	0.000037
1.398750,	0.007463,	0.000037
1.406250,	0.007463,	0.000037
1.413750,	0.007463,	0.000037
1.421250,	0.007463,	0.000037
1.428750,	0.007463,	0.000037
1.436250,	0.007463,	0.000037
1.443750,	0.007463,	0.000037
1.451250,	0.007463,	0.000037
1.458750,	0.007463,	0.000037
1.466250,	0.007463,	0.000037
1.473750,	0.007463,	0.000037
1.481250,	0.007463,	0.000037
1.488750,	0.007463,	0.000037
1.496250,	0.007463,	0.000037
1.503750,	0.007463,	0.000037
1.511250,	0.007463,	0.000037
1.518750,	0.007463,	0.000037
1.526250,	0.007463,	0.000037
1.533750,	0.007463,	0.000037
1.541250,	0.007463,	0.000037
1.548750,	0.007463,	0.000037
1.556250,	0.007463,	0.000037
1.563750,	0.007463,	0.000037
1.571250,	0.007463,	0.000037
1.578750,	0.007463,	0.000037
1.586250,	0.007463,	0.000037
1.593750,	0.007463,	0.000037
1.601250,	0.007463,	0.000037
1.608750,	0.007463,	0.000037
1.616250,	0.007463,	0.000037
1.623750,	0.007463,	0.000037
1.631250,	0.007463,	0.000037
1.638750,	0.007463,	0.000037
1.646250,	0.007463,	0.000037
1.653750,	0.007463,	0.000037
1.661250,	0.007463,	0.000037
1.668750,	0.007463,	0.000037
1.676250,	0.007463,	0.000037
1.683750,	0.007463,	0.000037
1.691250,	0.007463,	0.000037
1.698750,	0.007463,	0.000037
1.706250,	0.007463,	0.000037
1.713750,	0.007463,	0.000037
1.721250,	0.007463,	0.000037
1.728750,	0.007463,	0.000037
1.736250,	0.007463,	0.000037
1.743750,	0.007463,	0.000037
1.751250,	0.007463,	0.000037
1.758750,	0.007463,	0.000037
1.766250,	0.007463,	0.000037
1.773750,	0.007463,	0.000037
1.781250,	0.007463,	0.000037
1.788750,	0.007463,	0.000037
1.796250,	0.007463,	0.000037
1.803750,	0.007463,	0.000037
1.811250,	0.007463,	0.000037
1.818750,	0.007463,	0.000037
1.826250,	0.007463,	0.000037
1.833750,	0.007463,	0.000037
1.841250,	0.007463,	0.000037
1.848750,	0.007463,	0.000037
1.856250,	0.007463,	0.000037
1.863750,	0.007463,	0.000037
1.871250,	0.007463,	0.000037
1.878750,	0.007463,	0.000037
1.886250,	0.007463,	0.000037
1.893750,	0.007463,	0.000037
1.901250,	0.007463,	0.000037
1.908750,	0.007463,	0.000037
1.916250,	0.007463,	0.000037
1.923750,	0.007463,	0.000037
1.931250,	0.007463,	0.000037
1.938750,	0.007463,	0.000037
1.946250,	0.007463,	0.000037
1.953750,	0.007463,	0.000037
1.961250,	0.007463,	0.000037
1.968750,	0.007463,	0.000037
1.976250,	0.007463,	0.000037
1.983750,	0.007463,	0.000037
1.991250,	0.007463,	0.000037
1.998750,	0.007463,	0.000037
2.006250,	0.007463,	0.000037
2.013750,	0.007463,	0.000037
2.021250,	0.007463,	0.000037
2.028750,	0.007463,	0.000037
2.036250,	0.007463,	0.000037
2.043750,	0.007463,	0.000037
2.051250,	0.007463,	0.000037
2.058750,	0.007463,	0.000037
2.066250,	0.007463,	0.000037
2.073750,	0.007463,	0.000037
2.081250,	0.007463,	0.000037
2.088750,	0.007463,	0.000037
2.096250,	0.007463,	0.000037
2.103750,	0.007463,	0.000037
2.111250,	0.007463,	0.000037
2.118750,	0.007463,	0.000037
2.126250,	0.007463,	0.000037
2.133750,	0.007463,	0.000037
2.141250,	0.007463,	0.000037
2.148750,	0.007463,	0.000037
2.156250,	0.007463,	0.000037
2.163750,	0.007463,	0.000037
2.171250,	0.007463,	0.000037
2.178750,	0.007463,	0.000037
2.186250,	0.007463,	0.000037
2.193750,	0.007463,	0.000037
2.201250,	0.007463,	0.000037
2.208750,	0.007463,	0.000037
2.216250,	0.007463,	0.000037
2.223750,	0.007463,	0.000037
2.231250,	0.007463,	0.000037
2.238750,	0.007463,	0.000037
2.246250,	0.007463,	0.000037
2.253750,	0.007463,	0.000037
2.261250,	0.007463,	0.000037
2.268750,	0.007463,	0.000037
2.276250,	0.007463,	0.000037
2.283750,	0.007463,	0.000037
2.291250,	0.007463,	0.000037
2.298750,	0.007463,	0.000037
2.306250,	0.007463,	0.000037
2.313750,	0.007463,	0.000037
2.321250,	0.007463,	0.000037
2.328750,	0.007463,	0.000037
2.336250,	0.007463,	0.000037
2.343750,	0.007463,	0.000037
2.351250,	0.007463,	0.000037
2.358750,	0.007463,	0.000037
2.366250,	0.007463,	0.000037
2.373750,	0.007463,	0.000037
2.381250,	0.007463,	0.000037
2.388750,	0.007463,	0.000037
2.396250,	0.007463,	0.000037
2.403750,	0.007463,	0.000037
2.411250,	0.007463,	0.000037
2.418750,	0.007463,	0.000037
2.426250,	0.007463,	0.000037
2.433750,	0.007463,	0.000037
2.441250,	0.007463,	0.000037
2.448750,	0.007463,	0.000037
2.456250,	0.007463,	0.000037
2.463750,	0.007463,	0.000037
2.471250,	0.007463,	0.000037
2.478750,	0.007463,	0.000037
2.486250,	0.007463,	0.000037
2.493750,	0.007463,	0.000037
2.501250,	0.007463,	0.000037
2.508750,	0.007463,	0.000037
2.516250,	0.007463,	0.000037
2.523750,	0.007463,	0.000037
2.531250,	0.007463,	0.000037
2.538750,	0.007463,	0.000037
2.546250,	0.007463,	0.000037
2.553750,	0.007463,	0.000037
2.561250,	0.007463,	0.000037
2.568750,	0.007463,	0.000037
2.576250,	0.007463,	0.000037
2.583750,	0.007463,	0.000037
2.591250,	0.007463,	0.000037
2.598750,	0.007463,	0.000037
2.606250,	0.007463,	0.000037
2.613750,	0.007463,	0.000037
2.621250,	0.007463,	0.000037
2.628750,	0.007463,	0.000037
2.636250,	0.007463,	0.000037
2.643750,	0.007463,	0.000037
2.651250,	0.007463,	0.000037
2.658750,	0.007463,	0.000037
2.666250,	0.007463,	0.000037
2.673750,	0.007463,	0.000037
2.681250,	0.007463,	0.000037
2.688750,	0.007463,	0.000037
2.696250,	0.007463,	0.000037
2.703750,	0.007463,	0.000037
2.711250,	0.007463,	0.000037
2.718750,	0.007463,	0.000037
2.726250,	0.007463,	0.000037
2.733750,	0.007463,	0.000037
2.741250,	0.007463,	0.000037
2.748750,	0.007463,	0.000037
2.756250,	0.007463,	0.000037
2.763750,	0.007463,	0.000037
2.771250,	0.007463,	0.000037
2.778750,	0.007463,	0.000037
2.786250,	0.007463,	0.000037
2.793750,	0.007463,	0.000037
2.801250,	0.007463,	0.000037
2.808750,	0.007463,	0.000037
2.816250,	0.007463,	0.000037
2.823750,	0.007463,	0.000037
2.831250,	0.007463,	0.000037
2.838750,	0.007463,	0.000037
2.846250,	0.007463,	0.000037
2.853750,	0.007463,	0.000037
2.861250,	0.007463,	0.000037
2.868750,	0.007463,	0.000037
2.876250,	0.007463,	0.000037
2.883750,	0.007463,	0.000037
2.891250,	0.007463,	0.000037
2.898750,	0.007463,	0.000037
2.906250,	0.007463,	0.000037
2.913750,	0.007463,	0.000037
2.921250,	0.007463,	0.000037
2.928750,	0.007463,	0.000037
2.936250,	0.007463,	0.000037
2.943750,	0.007463,	0.000037
2.951250,	0.007463,	0.000037
2.958750,	0.007463,	0.000037
2.966250,	0.007463,	0.000037
2.973750,	0.007463,	0.000037
2.981250,	0.007463,	0.000037
2.988750,	0.007463,	0.000037
2.996250,	0.007463,	0.000037
0.003750,	0.012364,	0.000037
0.011250,	0.012217,	0.000037
0.018750,	0.012072,	0.000036
0.026250,	0.011929,	0.000036
0.033750,	0.011789,	0.000035
0.041250,	0.011651,	0.000035
0.048750,	0.011515,	0.000035
0.056250,	0.011381,	0.000034
0.063750,	0.011250,	0.000034
0.071250,	0.011121,	0.000033
0.078750,	0.010995,	0.000033
0.086250,	0.010870,	0.000033
0.093750,	0.010747,	0.000032
0.101250,	0.010627,	0.000032
0.108750,	0.010509,	0.000032
0.116250,	0.010394,	0.000031
0.123750,	0.010280,	0.000031
0.131250,	0.010169,	0.000031
0.138750,	0.010060,	0.000030
0.146250,	0.009953,	0.000030
0.153750,	0.009849,	0.000030
0.161250,	0.009747,	0.000029
0.168750,	0.009647,	0.000029
0.176250,	0.009549,	0.000029
0.183750,	0.009453,	0.000028
0.191250,	0.009360,	0.000028
0.198750,	0.009269,	0.000028
0.206250,	0.009180,	0.000028
0.213750,	0.009094,	0.000027
0.221250,	0.009009,	0.000027
0.228750,	0.008927,	0.000027
0.236250,	0.008847,	0.000027
0.243750,	0.008770,	0.000026
0.251250,	0.008695,	0.000026
0.258750,	0.008621,	0.000026
0.266250,	0.008550,	0.000026
0.273750,	0.008481,	0.000025
0.281250,	0.008415,	0.000025
0.288750,	0.008351,	0.000025
0.296250,	0.008289,	0.000025
0.303750,	0.008229,	0.000025
0.311250,	0.008172,	0.000025
0.318750,	0.008117,	0.000024
0.326250,	0.008064,	0.000024
0.333750,	0.008013,	0.000024
0.341250,	0.007965,	0.000024
0.348750,	0.007919,	0.000024
0.356250,	0.007874,	0.000024
0.363750,	0.007832,	0.000023
0.371250,	0.007793,	0.000023
0.378750,	0.007755,	0.000023
0.386250,	0.007720,	0.000023
0.393750,	0.007687,	0.000023
0.401250,	0.007657,	0.000023
0.408750,	0.007629,	0.000023
0.416250,	0.007602,	0.000023
0.423750,	0.007579,	0.000023
0.431250,	0.007557,	0.000023
0.438750,	0.007538,	0.000023
0.446250,	0.007520,	0.000023
0.453750,	0.007506,	0.000023
0.461250,	0.007493,	0.000022
0.468750,	0.007482,	0.000022
0.476250,	0.007474,	0.000022
0.483750,	0.007468,	0.000022
0.491250,	0.007465,	0.000022
0.498750,	0.007463,	0.000022
0.506250,	0.007464,	0.000022
0.513750,	0.007467,	0.000022
0.521250,	0.007472,	0.000022
0.528750,	0.007479,	0.000022
0.536250,	0.007489,	0.000022
0.543750,	0.007501,	0.000022
0.551250,	0.007515,	0.000023
0.558750,	0.007532,	0.000023
0.566250,	0.007550,	0.000023
0.573750,	0.007571,	0.000023
0.581250,	0.007594,	0.000023
0.588750,	0.007620,	0.000023
0.596250,	0.007647,	0.000023
0.603750,	0.007677,	0.000023
0.611250,	0.007709,	0.000023
0.618750,	0.007744,	0.000023
0.626250,	0.007780,	0.000023
0.633750,	0.007819,	0.000023
0.641250,	0.007860,	0.000024
0.648750,	0.007903,	0.000024
0.656250,	0.007949,	0.000024
0.663750,	0.007997,	0.000024
0.671250,	0.008047,	0.000024
0.678750,	0.008099,	0.000024
0.686250,	0.008153,	0.000024
0.693750,	0.008210,	0.000025
0.701250,	0.008269,	0.000025
0.708750,	0.008330,	0.000025
0.716250,	0.008394,	0.000025
0.723750,	0.008459,	0.000025
0.731250,	0.008527,	0.000026
0.738750,	0.008597,	0.000026
0.746250,	0.008670,	0.000026
0.753750,	0.008745,	0.000026
0.761250,	0.008821,	0.000026
0.768750,	0.008900,	0.000027
0.776250,	0.008981,	0.000027
0.783750,	0.009065,	0.000027
0.791250,	0.009151,	0.000027
0.798750,	0.009239,	0.000028
0.806250,	0.009329,	0.000028
0.813750,	0.009422,	0.000028
0.821250,	0.009517,	0.000029
0.828750,	0.009614,	0.000029
0.836250,	0.009713,	0.000029
0.843750,	0.009815,	0.000029
0.851250,	0.009919,	0.000030
0.858750,	0.010024,	0.000030
0.866250,	0.010132,	0.000030
0.873750,	0.010243,	0.000031
0.881250,	0.010356,	0.000031
0.888750,	0.010471,	0.000031
0.896250,	0.010587,	0.000032
0.903750,	0.010707,	0.000032
0.911250,	0.010829,	0.000032
0.918750,	0.010953,	0.000033
0.926250,	0.011079,	0.000033
0.933750,	0.011207,	0.000034
0.941250,	0.011338,	0.000034
0.948750,	0.011471,	0.000034
0.956250,	0.011606,	0.000035
0.963750,	0.011743,	0.000035
0.971250,	0.011882,	0.000036
0.978750,	0.012024,	0.000036
0.986250,	0.012169,	0.000037
0.993750,	0.012315,	0.000037
1.001250,	0.012413,	0.000037
1.008750,	0.012438,	0.000037
1.016250,	0.012438,	0.000037
1.023750,	0.012438,	0.000037
1.031250,	0.012438,	0.000037
1.038750,	0.012438,	0.000037
1.046250,	0.012438,	0.000037
1.053750,	0.012438,	0.000037
1.061250,	0.012438,	0.000037
1.068750,	0.012438,	0.000037
1.076250,	0.012438,	0.000037
1.083750,	0.012438,	0.000037
1.091250,	0.012438,	0.000037
1.098750,	0.012438,	0.000037
1.106250,	0.012438,	0.000037
1.113750,	0.012438,	0.000037
1.121250,	0.012438,	0.000037
1.128750,	0.012438,	0.000037
1.136250,	0.012438,	0.000037
1.143750,	0.012438,	0.000037
1.151250,	0.012438,	0.000037
1.158750,	0.012438,	0.000037
1.166250,	0.012438,	0.000037
1.173750,	0.012438,	0.000037
1.181250,	0.012438,	0.000037
1.188750,	0.012438,	0.000037
1.196250,	0.012438,	0.000037
1.203750,	0.012438,	0.000037
1.211250,	0.012438,	0.000037
1.218750,	0.012438,	0.000037
1.226250,	0.012438,	0.000037
1.233750,	0.012438,	0.000037
1.241250,	0.012438,	0.000037
1.248750,	0.012438,	0.000037
1.256250,	0.012438,	0.000037
1.263750,	0.012438,	0.000037
1.271250,	0.012438,	0.000037
1.278750,	0.012438,	0.000037
1.286250,	0.012438,	0.000037
1.293750,	0.012438,	0.000037
1.301250,	0.012438,	0.000037
1.308750,	0.012438,	0.000037
1.316250,	0.012438,	0.000037
1.323750,	0.012438,	0.000037
1.331250,	0.012438,	0.000037
1.338750,	0.012438,	0.000037
1.346250,	0.012438,	0.000037
1.353750,	0.012438,	0.000037
1.361250,	0.012438,	0.000037
1.368750,	0.012438,	0.000037
1.376250,	0.012438,	0.000037
1.383750,	0.012438,	0.000037
1.391250,	0.012438,	0.000037
1.398750,	0.012438,	0.000037
1.406250,	0.012438,	0.000037
1.413750,	0.012438,	0.000037
1.421250,	0.012438,	0.000037
1.428750,	0.012438,	0.000037
1.436250,	0.012438,	0.000037
1.443750,	0.012438,	0.000037
1.451250,	0.012438,	0.000037
1.458750,	0.012438,	0.000037
1.466250,	0.012438,	0.000037
1.473750,	0.012438,	0.000037
1.481250,	0.012438,	0.000037
1.488750,	0.012438,	0.000037
1.496250,	0.012438,	0.000037
1.503750,	0.012438,	0.000037
1.511250,	0.012438,	0.000037
1.518750,	0.012438,	0.000037
1.526250,	0.012438,	0.000037
1.533750,	0.012438,	0.000037
1.541250,	0.012438,	0.000037
1.548750,	0.012438,	0.000037
1.556250,	0.012438,	0.000037
1.563750,	0.012438,	0.000037
1.571250,	0.012438,	0.000037
1.578750,	0.012438,	0.000037
1.586250,	0.012438,	0.000037
1.593750,	0.012438,	0.000037
1.601250,	0.012438,	0.000037
1.608750,	0.012438,	0.000037
1.616250,	0.012438,	0.000037
1.623750,	0.012438,	0.000037
1.631250,	0.012438,	0.000037
1.638750,	0.012438,	0.000037
1.646250,	0.012438,	0.000037
1.653750,	0.012438,	0.000037
1.661250,	0.012438,	0.000037
1.668750,	0.012438,	0.000037
1.676250,	0.012438,	0.000037
1.683750,	0.012438,	0.000037
1.691250,	0.012438,	0.000037
1.698750,	0.012438,	0.000037
1.706250,	0.012438,	0.000037
1.713750,	0.012438,	0.000037
1.721250,	0.012438,	0.000037
1.728750,	0.012438,	0.000037