TITLE = "MeshVolumeStats"
VARIABLES = "X", "Y", "VOL"
ZONE I=400, J=200, DATAPACKING=POINT
0.005000,	0.050508,	0.000014
0.015000,	0.050508,	0.000014
0.025000,	0.050508,	0.000014
0.035000,	0.050508,	0.000014
0.045000,	0.050508,	0.000014
0.055000,	0.050508,	0.000014
0.065000,	0.050508,	0.000014
0.075000,	0.050508,	0.000014
0.085000,	0.050508,	0.000014
0.095000,	0.050508,	0.000014
0.105000,	0.050508,	0.000014
0.115000,	0.050508,	0.000014
0.125000,	0.050508,	0.000014
0.135000,	0.050508,	0.000014
0.145000,	0.050508,	0.000014
0.155000,	0.050508,	0.000014
0.165000,	0.050508,	0.000014
0.175000,	0.050508,	0.000014
0.185000,	0.050508,	0.000014
0.195000,	0.050508,	0.000014
0.205000,	0.050508,	0.000014
0.215000,	0.050508,	0.000014
0.225000,	0.050508,	0.000014
0.235000,	0.050508,	0.000014
0.245000,	0.050508,	0.000014
0.255000,	0.050508,	0.000014
0.265000,	0.050508,	0.000014
0.275000,	0.050508,	0.000014
0.285000,	0.050508,	0.000014
0.295000,	0.050508,	0.000014
0.305000,	0.050508,	0.000014
0.315000,	0.050508,	0.000014
0.325000,	0.050508,	0.000014
0.335000,	0.050508,	0.000014
0.345000,	0.050508,	0.000014
0.355000,	0.050508,	0.000014
0.365000,	0.050508,	0.000014
0.375000,	0.050508,	0.000014
0.385000,	0.050508,	0.000014
0.395000,	0.050508,	0.000014
0.405000,	0.050508,	0.000014
0.415000,	0.050508,	0.000014
0.425000,	0.050508,	0.000014
0.435000,	0.050508,	0.000014
0.445000,	0.050508,	0.000014
0.455000,	0.050508,	0.000014
0.465000,	0.050508,	0.000014
0.475000,	0.050508,	0.000014
0.485000,	0.050508,	0.000014
0.495000,	0.050508,	0.000014
0.505000,	0.050508,	0.000014
0.515000,	0.050508,	0.000014
0.525000,	0.050508,	0.000014
0.535000,	0.050508,	0.000014
0.545000,	0.050508,	0.000014
0.555000,	0.050508,	0.000014
0.565000,	0.050508,	0.000014
0.575000,	0.050508,	0.000014
0.585000,	0.050508,	0.000014
0.595000,	0.050508,	0.000014
0.605000,	0.050508,	0.000014
0.615000,	0.050508,	0.000014
0.625000,	0.050508,	0.000014
0.635000,	0.050508,	0.000014
0.645000,	0.050508,	0.000014
0.655000,	0.050508,	0.000014
0.665000,	0.050508,	0.000014
0.675000,	0.050508,	0.000014
0.685000,	0.050508,	0.000014
0.695000,	0.050508,	0.000014
0.705000,	0.050508,	0.000014
0.715000,	0.050508,	0.000014
0.725000,	0.050508,	0.000014
0.735000,	0.050508,	0.000014
0.745000,	0.050508,	0.000014
0.755000,	0.050508,	0.000014
0.765000,	0.050508,	0.000014
0.775000,	0.050508,	0.000014
0.785000,	0.050508,	0.000014
0.795000,	0.050508,	0.000014
0.805000,	0.050508,	0.000014
0.815000,	0.050508,	0.000014
0.825000,	0.050508,	0.000014
0.835000,	0.050508,	0.000014
0.845000,	0.050508,	0.000014
0.855000,	0.050508,	0.000014
0.865000,	0.050508,	0.000014
0.875000,	0.050508,	0.000014
0.885000,	0.050508,	0.000014
0.895000,	0.050508,	0.000014
0.905000,	0.050508,	0.000014
0.915000,	0.050508,	0.000014
0.925000,	0.050508,	0.000014
0.935000,	0.050508,	0.000014
0.945000,	0.050508,	0.000014
0.955000,	0.050508,	0.000014
0.965000,	0.050508,	0.000014
0.975000,	0.050508,	0.000014
0.985000,	0.050508,	0.000014
0.995000,	0.050508,	0.000014
1.005000,	0.051932,	0.000014
1.015000,	0.054781,	0.000014
1.025000,	0.057629,	0.000014
1.035000,	0.060478,	0.000014
1.045000,	0.063327,	0.000014
1.055000,	0.066175,	0.000014
1.065000,	0.069024,	0.000014
1.075000,	0.071872,	0.000014
1.085000,	0.074720,	0.000014
1.095000,	0.077568,	0.000014
1.105000,	0.080417,	0.000014
1.115000,	0.083266,	0.000014
1.125000,	0.086114,	0.000014
1.135000,	0.088962,	0.000014
1.145000,	0.091811,	0.000014
1.155000,	0.094660,	0.000014
1.165000,	0.097508,	0.000014
1.175000,	0.100357,	0.000014
1.185000,	0.103205,	0.000014
1.195000,	0.106053,	0.000014
1.205000,	0.108902,	0.000014
1.215000,	0.111750,	0.000013
1.225000,	0.114599,	0.000013
1.235000,	0.117447,	0.000013
1.245000,	0.120296,	0.000013
1.255000,	0.123144,	0.000013
1.265000,	0.125993,	0.000013
1.275000,	0.128841,	0.000013
1.285000,	0.131690,	0.000013
1.295000,	0.134538,	0.000013
1.305000,	0.137387,	0.000013
1.315000,	0.140235,	0.000013
1.325000,	0.143084,	0.000013
1.335000,	0.145932,	0.000013
1.345000,	0.148781,	0.000013
1.355000,	0.151629,	0.000013
1.365000,	0.154478,	0.000013
1.375000,	0.157326,	0.000013
1.385000,	0.160174,	0.000013
1.395000,	0.163023,	0.000013
1.405000,	0.165872,	0.000013
1.415000,	0.168720,	0.000013
1.425000,	0.171568,	0.000013
1.435000,	0.174417,	0.000013
1.445000,	0.177265,	0.000012
1.455000,	0.180114,	0.000012
1.465000,	0.182962,	0.000012
1.475000,	0.185811,	0.000012
1.485000,	0.188659,	0.000012
1.495000,	0.191508,	0.000012
1.505000,	0.194356,	0.000012
1.515000,	0.197205,	0.000012
1.525000,	0.200053,	0.000012
1.535000,	0.202902,	0.000012
1.545000,	0.205750,	0.000012
1.555000,	0.208598,	0.000012
1.565000,	0.211447,	0.000012
1.575000,	0.214295,	0.000012
1.585000,	0.217144,	0.000012
1.595000,	0.219992,	0.000012
1.605000,	0.222841,	0.000012
1.615000,	0.225690,	0.000012
1.625000,	0.228538,	0.000012
1.635000,	0.231386,	0.000012
1.645000,	0.234235,	0.000012
1.655000,	0.237084,	0.000012
1.665000,	0.239932,	0.000012
1.675000,	0.242781,	0.000011
1.685000,	0.245629,	0.000011
1.695000,	0.248477,	0.000011
1.705000,	0.251325,	0.000011
1.715000,	0.254174,	0.000011
1.725000,	0.257023,	0.000011
1.735000,	0.259871,	0.000011
1.745000,	0.262719,	0.000011
1.755000,	0.265568,	0.000011
1.765000,	0.268417,	0.000011
1.775000,	0.271265,	0.000011
1.785000,	0.274114,	0.000011
1.795000,	0.276962,	0.000011
1.805000,	0.279811,	0.000011
1.815000,	0.282659,	0.000011
1.825000,	0.285507,	0.000011
1.835000,	0.288356,	0.000011
1.845000,	0.291204,	0.000011
1.855000,	0.294053,	0.000011
1.865000,	0.296901,	0.000011
1.875000,	0.299750,	0.000011
1.885000,	0.302598,	0.000011
1.895000,	0.305447,	0.000011
1.905000,	0.308295,	0.000011
1.915000,	0.311144,	0.000010
1.925000,	0.313992,	0.000010
1.935000,	0.316841,	0.000010
1.945000,	0.319689,	0.000010
1.955000,	0.322537,	0.000010
1.965000,	0.325386,	0.000010
1.975000,	0.328235,	0.000010
1.985000,	0.331083,	0.000010
1.995000,	0.333931,	0.000010
2.005000,	0.335356,	0.000010
2.015000,	0.335356,	0.000010
2.025000,	0.335356,	0.000010
2.035000,	0.335356,	0.000010
2.045000,	0.335356,	0.000010
2.055000,	0.335356,	0.000010
2.065000,	0.335356,	0.000010
2.075000,	0.335356,	0.000010
2.085000,	0.335356,	0.000010
2.095000,	0.335356,	0.000010
2.105000,	0.335356,	0.000010
2.115000,	0.335356,	0.000010
2.125000,	0.335356,	0.000010
2.135000,	0.335356,	0.000010
2.145000,	0.335356,	0.000010
2.155000,	0.335356,	0.000010
2.165000,	0.335356,	0.000010
2.175000,	0.335356,	0.000010
2.185000,	0.335356,	0.000010
2.195000,	0.335356,	0.000010
2.205000,	0.335356,	0.000010
2.215000,	0.335356,	0.000010
2.225000,	0.335356,	0.000010
2.235000,	0.335356,	0.000010
2.245000,	0.335356,	0.000010
2.255000,	0.335356,	0.000010
2.265000,	0.335356,	0.000010
2.275000,	0.335356,	0.000010
2.285000,	0.335356,	0.000010
2.295000,	0.335356,	0.000010
2.305000,	0.335356,	0.000010
2.315000,	0.335356,	0.000010
2.325000,	0.335356,	0.000010
2.335000,	0.335356,	0.000010
2.345000,	0.335356,	0.000010
2.355000,	0.335356,	0.000010
2.365000,	0.335356,	0.000010
2.375000,	0.335356,	0.000010
2.385000,	0.335356,	0.000010
2.395000,	0.335356,	0.000010
2.405000,	0.335356,	0.000010
2.415000,	0.335356,	0.000010
2.425000,	0.335356,	0.000010
2.435000,	0.335356,	0.000010
2.445000,	0.335356,	0.000010
2.455000,	0.335356,	0.000010
2.465000,	0.335356,	0.000010
2.475000,	0.335356,	0.000010
2.485000,	0.335356,	0.000010
2.495000,	0.335356,	0.000010
2.505000,	0.335356,	0.000010
2.515000,	0.335356,	0.000010
2.525000,	0.335356,	0.000010
2.535000,	0.335356,	0.000010
2.545000,	0.335356,	0.000010
2.555000,	0.335356,	0.000010
2.565000,	0.335356,	0.000010
2.575000,	0.335356,	0.000010
2.585000,	0.335356,	0.000010
2.595000,	0.335356,	0.000010
2.605000,	0.335356,	0.000010
2.615000,	0.335356,	0.000010
2.625000,	0.335356,	0.000010
2.635000,	0.335356,	0.000010
2.645000,	0.335356,	0.000010
2.655000,	0.335356,	0.000010
2.665000,	0.335356,	0.000010
2.675000,	0.335356,	0.000010
2.685000,	0.335356,	0.000010
2.695000,	0.335356,	0.000010
2.705000,	0.335356,	0.000010
2.715000,	0.335356,	0.000010
2.725000,	0.335356,	0.000010
2.735000,	0.335356,	0.000010
2.745000,	0.335356,	0.000010
2.755000,	0.335356,	0.000010
2.765000,	0.335356,	0.000010
2.775000,	0.335356,	0.000010
2.785000,	0.335356,	0.000010
2.795000,	0.335356,	0.000010
2.805000,	0.335356,	0.000010
2.815000,	0.335356,	0.000010
2.825000,	0.335356,	0.000010
2.835000,	0.335356,	0.000010
2.845000,	0.335356,	0.000010
2.855000,	0.335356,	0.000010
2.865000,	0.335356,	0.000010
2.875000,	0.335356,	0.000010
2.885000,	0.335356,	0.000010
2.895000,	0.335356,	0.000010
2.905000,	0.335356,	0.000010
2.915000,	0.335356,	0.000010
2.925000,	0.335356,	0.000010
2.935000,	0.335356,	0.000010
2.945000,	0.335356,	0.000010
2.955000,	0.335356,	0.000010
2.965000,	0.335356,	0.000010
2.975000,	0.335356,	0.000010
2.985000,	0.335356,	0.000010
2.995000,	0.335356,	0.000010
3.005000,	0.335356,	0.000010
3.015000,	0.335356,	0.000010
3.025000,	0.335356,	0.000010
3.035000,	0.335356,	0.000010
3.045000,	0.335356,	0.000010
3.055000,	0.335356,	0.000010
3.065000,	0.335356,	0.000010
3.075000,	0.335356,	0.000010
3.085000,	0.335356,	0.000010
3.095000,	0.335356,	0.000010
3.105000,	0.335356,	0.000010
3.115000,	0.335356,	0.000010
3.125000,	0.335356,	0.000010
3.135000,	0.335356,	0.000010
3.145000,	0.335356,	0.000010
3.155000,	0.335356,	0.000010
3.165000,	0.335356,	0.000010
3.175000,	0.335356,	0.000010
3.185000,	0.335356,	0.000010
3.195000,	0.335356,	0.000010
3.205000,	0.335356,	0.000010
3.215000,	0.335356,	0.000010
3.225000,	0.335356,	0.000010
3.235000,	0.335356,	0.000010
3.245000,	0.335356,	0.000010
3.255000,	0.335356,	0.000010
3.265000,	0.335356,	0.000010
3.275000,	0.335356,	0.000010
3.285000,	0.335356,	0.000010
3.295000,	0.335356,	0.000010
3.305000,	0.335356,	0.000010
3.315000,	0.335356,	0.000010
3.325000,	0.335356,	0.000010
3.335000,	0.335356,	0.000010
3.345000,	0.335356,	0.000010
3.355000,	0.335356,	0.000010
3.365000,	0.335356,	0.000010
3.375000,	0.335356,	0.000010
3.385000,	0.335356,	0.000010
3.395000,	0.335356,	0.000010
3.405000,	0.335356,	0.000010
3.415000,	0.335356,	0.000010
3.425000,	0.335356,	0.000010
3.435000,	0.335356,	0.000010
3.445000,	0.335356,	0.000010
3.455000,	0.335356,	0.000010
3.465000,	0.335356,	0.000010
3.475000,	0.335356,	0.000010
3.485000,	0.335356,	0.000010
3.495000,	0.335356,	0.000010
3.505000,	0.335356,	0.000010
3.515000,	0.335356,	0.000010
3.525000,	0.335356,	0.000010
3.535000,	0.335356,	0.000010
3.545000,	0.335356,	0.000010
3.555000,	0.335356,	0.000010
3.565000,	0.335356,	0.000010
3.575000,	0.335356,	0.000010
3.585000,	0.335356,	0.000010
3.595000,	0.335356,	0.000010
3.605000,	0.335356,	0.000010
3.615000,	0.335356,	0.000010
3.625000,	0.335356,	0.000010
3.635000,	0.335356,	0.000010
3.645000,	0.335356,	0.000010
3.655000,	0.335356,	0.000010
3.665000,	0.335356,	0.000010
3.675000,	0.335356,	0.000010
3.685000,	0.335356,	0.000010
3.695000,	0.335356,	0.000010
3.705000,	0.335356,	0.000010
3.715000,	0.335356,	0.000010
3.725000,	0.335356,	0.000010
3.735000,	0.335356,	0.000010
3.745000,	0.335356,	0.000010
3.755000,	0.335356,	0.000010
3.765000,	0.335356,	0.000010
3.775000,	0.335356,	0.000010
3.785000,	0.335356,	0.000010
3.795000,	0.335356,	0.000010
3.805000,	0.335356,	0.000010
3.815000,	0.335356,	0.000010
3.825000,	0.335356,	0.000010
3.835000,	0.335356,	0.000010
3.845000,	0.335356,	0.000010
3.855000,	0.335356,	0.000010
3.865000,	0.335356,	0.000010
3.875000,	0.335356,	0.000010
3.885000,	0.335356,	0.000010
3.895000,	0.335356,	0.000010
3.905000,	0.335356,	0.000010
3.915000,	0.335356,	0.000010
3.925000,	0.335356,	0.000010
3.935000,	0.335356,	0.000010
3.945000,	0.335356,	0.000010
3.955000,	0.335356,	0.000010
3.965000,	0.335356,	0.000010
3.975000,	0.335356,	0.000010
3.985000,	0.335356,	0.000010
3.995000,	0.335356,	0.000010
0.005000,	0.051970,	0.000015
0.015000,	0.051970,	0.000015
0.025000,	0.051970,	0.000015
0.035000,	0.051970,	0.000015
0.045000,	0.051970,	0.000015
0.055000,	0.051970,	0.000015
0.065000,	0.051970,	0.000015
0.075000,	0.051970,	0.000015
0.085000,	0.051970,	0.000015
0.095000,	0.051970,	0.000015
0.105000,	0.051970,	0.000015
0.115000,	0.051970,	0.000015
0.125000,	0.051970,	0.000015
0.135000,	0.051970,	0.000015
0.145000,	0.051970,	0.000015
0.155000,	0.051970,	0.000015
0.165000,	0.051970,	0.000015
0.175000,	0.051970,	0.000015
0.185000,	0.051970,	0.000015
0.195000,	0.051970,	0.000015
0.205000,	0.051970,	0.000015
0.215000,	0.051970,	0.000015
0.225000,	0.051970,	0.000015
0.235000,	0.051970,	0.000015
0.245000,	0.051970,	0.000015
0.255000,	0.051970,	0.000015
0.265000,	0.051970,	0.000015
0.275000,	0.051970,	0.000015
0.285000,	0.051970,	0.000015
0.295000,	0.051970,	0.000015
0.305000,	0.051970,	0.000015
0.315000,	0.051970,	0.000015
0.325000,	0.051970,	0.000015
0.335000,	0.051970,	0.000015
0.345000,	0.051970,	0.000015
0.355000,	0.051970,	0.000015
0.365000,	0.051970,	0.000015
0.375000,	0.051970,	0.000015
0.385000,	0.051970,	0.000015
0.395000,	0.051970,	0.000015
0.405000,	0.051970,	0.000015
0.415000,	0.051970,	0.000015
0.425000,	0.051970,	0.000015
0.435000,	0.051970,	0.000015
0.445000,	0.051970,	0.000015
0.455000,	0.051970,	0.000015
0.465000,	0.051970,	0.000015
0.475000,	0.051970,	0.000015
0.485000,	0.051970,	0.000015
0.495000,	0.051970,	0.000015
0.505000,	0.051970,	0.000015
0.515000,	0.051970,	0.000015
0.525000,	0.051970,	0.000015
0.535000,	0.051970,	0.000015
0.545000,	0.051970,	0.000015
0.555000,	0.051970,	0.000015
0.565000,	0.051970,	0.000015
0.575000,	0.051970,	0.000015
0.585000,	0.051970,	0.000015
0.595000,	0.051970,	0.000015
0.605000,	0.051970,	0.000015
0.615000,	0.051970,	0.000015
0.625000,	0.051970,	0.000015
0.635000,	0.051970,	0.000015
0.645000,	0.051970,	0.000015
0.655000,	0.051970,	0.000015
0.665000,	0.051970,	0.000015
0.675000,	0.051970,	0.000015
0.685000,	0.051970,	0.000015
0.695000,	0.051970,	0.000015
0.705000,	0.051970,	0.000015
0.715000,	0.051970,	0.000015
0.725000,	0.051970,	0.000015
0.735000,	0.051970,	0.000015
0.745000,	0.051970,	0.000015
0.755000,	0.051970,	0.000015
0.765000,	0.051970,	0.000015
0.775000,	0.051970,	0.000015
0.785000,	0.051970,	0.000015
0.795000,	0.051970,	0.000015
0.805000,	0.051970,	0.000015
0.815000,	0.051970,	0.000015
0.825000,	0.051970,	0.000015
0.835000,	0.051970,	0.000015
0.845000,	0.051970,	0.000015
0.855000,	0.051970,	0.000015
0.865000,	0.051970,	0.000015
0.875000,	0.051970,	0.000015
0.885000,	0.051970,	0.000015
0.895000,	0.051970,	0.000015
0.905000,	0.051970,	0.000015
0.915000,	0.051970,	0.000015
0.925000,	0.051970,	0.000015
0.935000,	0.051970,	0.000015
0.945000,	0.051970,	0.000015
0.955000,	0.051970,	0.000015
0.965000,	0.051970,	0.000015
0.975000,	0.051970,	0.000015
0.985000,	0.051970,	0.000015
0.995000,	0.051970,	0.000015
1.005000,	0.053392,	0.000015
1.015000,	0.056237,	0.000015
1.025000,	0.059081,	0.000015
1.035000,	0.061925,	0.000015
1.045000,	0.064769,	0.000015
1.055000,	0.067612,	0.000015
1.065000,	0.070457,	0.000015
1.075000,	0.073301,	0.000014
1.085000,	0.076145,	0.000014
1.095000,	0.078989,	0.000014
1.105000,	0.081833,	0.000014
1.115000,	0.084678,	0.000014
1.125000,	0.087521,	0.000014
1.135000,	0.090365,	0.000014
1.145000,	0.093210,	0.000014
1.155000,	0.096053,	0.000014
1.165000,	0.098898,	0.000014
1.175000,	0.101742,	0.000014
1.185000,	0.104586,	0.000014
1.195000,	0.107430,	0.000014
1.205000,	0.110274,	0.000014
1.215000,	0.113118,	0.000014
1.225000,	0.115962,	0.000014
1.235000,	0.118806,	0.000014
1.245000,	0.121650,	0.000014
1.255000,	0.124495,	0.000014
1.265000,	0.127339,	0.000014
1.275000,	0.130183,	0.000014
1.285000,	0.133026,	0.000014
1.295000,	0.135871,	0.000014
1.305000,	0.138715,	0.000013
1.315000,	0.141559,	0.000013
1.325000,	0.144403,	0.000013
1.335000,	0.147248,	0.000013
1.345000,	0.150091,	0.000013
1.355000,	0.152935,	0.000013
1.365000,	0.155779,	0.000013
1.375000,	0.158624,	0.000013
1.385000,	0.161468,	0.000013
1.395000,	0.164312,	0.000013
1.405000,	0.167156,	0.000013
1.415000,	0.170000,	0.000013
1.425000,	0.172844,	0.000013
1.435000,	0.175688,	0.000013
1.445000,	0.178532,	0.000013
1.455000,	0.181376,	0.000013
1.465000,	0.184220,	0.000013
1.475000,	0.187064,	0.000013
1.485000,	0.189909,	0.000013
1.495000,	0.192753,	0.000013
1.505000,	0.195597,	0.000013
1.515000,	0.198441,	0.000013
1.525000,	0.201285,	0.000012
1.535000,	0.204129,	0.000012
1.545000,	0.206973,	0.000012
1.555000,	0.209817,	0.000012
1.565000,	0.212662,	0.000012
1.575000,	0.215505,	0.000012
1.585000,	0.218349,	0.000012
1.595000,	0.221193,	0.000012
1.605000,	0.224038,	0.000012
1.615000,	0.226882,	0.000012
1.625000,	0.229726,	0.000012
1.635000,	0.232570,	0.000012
1.645000,	0.235414,	0.000012
1.655000,	0.238258,	0.000012
1.665000,	0.241102,	0.000012
1.675000,	0.243946,	0.000012
1.685000,	0.246790,	0.000012
1.695000,	0.249635,	0.000012
1.705000,	0.252478,	0.000012
1.715000,	0.255323,	0.000012
1.725000,	0.258167,	0.000012
1.735000,	0.261011,	0.000012
1.745000,	0.263855,	0.000012
1.755000,	0.266699,	0.000011
1.765000,	0.269543,	0.000011
1.775000,	0.272387,	0.000011
1.785000,	0.275231,	0.000011
1.795000,	0.278075,	0.000011
1.805000,	0.280919,	0.000011
1.815000,	0.283764,	0.000011
1.825000,	0.286608,	0.000011
1.835000,	0.289452,	0.000011
1.845000,	0.292296,	0.000011
1.855000,	0.295140,	0.000011
1.865000,	0.297984,	0.000011
1.875000,	0.300828,	0.000011
1.885000,	0.303672,	0.000011
1.895000,	0.306516,	0.000011
1.905000,	0.309360,	0.000011
1.915000,	0.312204,	0.000011
1.925000,	0.315049,	0.000011
1.935000,	0.317893,	0.000011
1.945000,	0.320737,	0.000011
1.955000,	0.323580,	0.000011
1.965000,	0.326425,	0.000011
1.975000,	0.329269,	0.000010
1.985000,	0.332113,	0.000010
1.995000,	0.334957,	0.000010
2.005000,	0.336379,	0.000010
2.015000,	0.336379,	0.000010
2.025000,	0.336379,	0.000010
2.035000,	0.336379,	0.000010
2.045000,	0.336379,	0.000010
2.055000,	0.336379,	0.000010
2.065000,	0.336379,	0.000010
2.075000,	0.336379,	0.000010
2.085000,	0.336379,	0.000010
2.095000,	0.336379,	0.000010
2.105000,	0.336379,	0.000010
2.115000,	0.336379,	0.000010
2.125000,	0.336379,	0.000010
2.135000,	0.336379,	0.000010
2.145000,	0.336379,	0.000010
2.155000,	0.336379,	0.000010
2.165000,	0.336379,	0.000010
2.175000,	0.336379,	0.000010
2.185000,	0.336379,	0.000010
2.195000,	0.336379,	0.000010
2.205000,	0.336379,	0.000010
2.215000,	0.336379,	0.000010
2.225000,	0.336379,	0.000010
2.235000,	0.336379,	0.000010
2.245000,	0.336379,	0.000010
2.255000,	0.336379,	0.000010
2.265000,	0.336379,	0.000010
2.275000,	0.336379,	0.000010
2.285000,	0.336379,	0.000010
2.295000,	0.336379,	0.000010
2.305000,	0.336379,	0.000010
2.315000,	0.336379,	0.000010
2.325000,	0.336379,	0.000010
2.335000,	0.336379,	0.000010
2.345000,	0.336379,	0.000010
2.355000,	0.336379,	0.000010
2.365000,	0.336379,	0.000010
2.375000,	0.336379,	0.000010
2.385000,	0.336379,	0.000010
2.395000,	0.336379,	0.000010
2.405000,	0.336379,	0.000010
2.415000,	0.336379,	0.000010
2.425000,	0.336379,	0.000010
2.435000,	0.336379,	0.000010
2.445000,	0.336379,	0.000010
2.455000,	0.336379,	0.000010
2.465000,	0.336379,	0.000010
2.475000,	0.336379,	0.000010
2.485000,	0.336379,	0.000010
2.495000,	0.336379,	0.000010
2.505000,	0.336379,	0.000010
2.515000,	0.336379,	0.000010
2.525000,	0.336379,	0.000010
2.535000,	0.336379,	0.000010
2.545000,	0.336379,	0.000010
2.555000,	0.336379,	0.000010
2.565000,	0.336379,	0.000010
2.575000,	0.336379,	0.000010
2.585000,	0.336379,	0.000010
2.595000,	0.336379,	0.000010
2.605000,	0.336379,	0.000010
2.615000,	0.336379,	0.000010
2.625000,	0.336379,	0.000010
2.635000,	0.336379,	0.000010
2.645000,	0.336379,	0.000010
2.655000,	0.336379,	0.000010
2.665000,	0.336379,	0.000010
2.675000,	0.336379,	0.000010
2.685000,	0.336379,	0.000010
2.695000,	0.336379,	0.000010
2.705000,	0.336379,	0.000010
2.715000,	0.336379,	0.000010
2.725000,	0.336379,	0.000010
2.735000,	0.336379,	0.000010
2.745000,	0.336379,	0.000010
2.755000,	0.336379,	0.000010
2.765000,	0.336379,	0.000010
2.775000,	0.336379,	0.000010
2.785000,	0.336379,	0.000010
2.795000,	0.336379,	0.000010
2.805000,	0.336379,	0.000010
2.815000,	0.336379,	0.000010
2.825000,	0.336379,	0.000010
2.835000,	0.336379,	0.000010
2.845000,	0.336379,	0.000010
2.855000,	0.336379,	0.000010
2.865000,	0.336379,	0.000010
2.875000,	0.336379,	0.000010
2.885000,	0.336379,	0.000010
2.895000,	0.336379,	0.000010
2.905000,	0.336379,	0.000010
2.915000,	0.336379,	0.000010
2.925000,	0.336379,	0.000010
2.935000,	0.336379,	0.000010
2.945000,	0.336379,	0.000010
2.955000,	0.336379,	0.000010
2.965000,	0.336379,	0.000010
2.975000,	0.336379,	0.000010
2.985000,	0.336379,	0.000010
2.995000,	0.336379,	0.000010
3.005000,	0.336379,	0.000010
3.015000,	0.336379,	0.000010
3.025000,	0.336379,	0.000010
3.035000,	0.336379,	0.000010
3.045000,	0.336379,	0.000010
3.055000,	0.336379,	0.000010
3.065000,	0.336379,	0.000010
3.075000,	0.336379,	0.000010
3.085000,	0.336379,	0.000010
3.095000,	0.336379,	0.000010
3.105000,	0.336379,	0.000010
3.115000,	0.336379,	0.000010
3.125000,	0.336379,	0.000010
3.135000,	0.336379,	0.000010
3.145000,	0.336379,	0.000010
3.155000,	0.336379,	0.000010
3.165000,	0.336379,	0.000010
3.175000,	0.336379,	0.000010
3.185000,	0.336379,	0.000010
3.195000,	0.336379,	0.000010
3.205000,	0.336379,	0.000010
3.215000,	0.336379,	0.000010
3.225000,	0.336379,	0.000010
3.235000,	0.336379,	0.000010
3.245000,	0.336379,	0.000010
3.255000,	0.336379,	0.000010
3.265000,	0.336379,	0.000010
3.275000,	0.336379,	0.000010
3.285000,	0.336379,	0.000010
3.295000,	0.336379,	0.000010
3.305000,	0.336379,	0.000010
3.315000,	0.336379,	0.000010
3.325000,	0.336379,	0.000010
3.335000,	0.336379,	0.000010
3.345000,	0.336379,	0.000010
3.355000,	0.336379,	0.000010
3.365000,	0.336379,	0.000010
3.375000,	0.336379,	0.000010
3.385000,	0.336379,	0.000010
3.395000,	0.336379,	0.000010
3.405000,	0.336379,	0.000010
3.415000,	0.336379,	0.000010
3.425000,	0.336379,	0.000010
3.435000,	0.336379,	0.000010
3.445000,	0.336379,	0.000010
3.455000,	0.336379,	0.000010
3.465000,	0.336379,	0.000010
3.475000,	0.336379,	0.000010
3.485000,	0.336379,	0.000010
3.495000,	0.336379,	0.000010
3.505000,	0.336379,	0.000010
3.515000,	0.336379,	0.000010
3.525000,	0.336379,	0.000010
3.535000,	0.336379,	0.000010
3.545000,	0.336379,	0.000010
3.555000,	0.336379,	0.000010
3.565000,	0.336379,	0.000010
3.575000,	0.336379,	0.000010
3.585000,	0.336379,	0.000010
3.595000,	0.336379,	0.000010
3.605000,	0.336379,	0.000010
3.615000,	0.336379,	0.000010
3.625000,	0.336379,	0.000010
3.635000,	0.336379,	0.000010
3.645000,	0.336379,	0.000010
3.655000,	0.336379,	0.000010
3.665000,	0.336379,	0.000010
3.675000,	0.336379,	0.000010
3.685000,	0.336379,	0.000010
3.695000,	0.336379,	0.000010
3.705000,	0.336379,	0.000010
3.715000,	0.336379,	0.000010
3.725000,	0.336379,	0.000010
3.735000,	0.336379,	0.000010
3.745000,	0.336379,	0.000010
3.755000,	0.336379,	0.000010
3.765000,	0.336379,	0.000010
3.775000,	0.336379,	0.000010
3.785000,	0.336379,	0.000010
3.795000,	0.336379,	0.000010
3.805000,	0.336379,	0.000010
3.815000,	0.336379,	0.000010
3.825000,	0.336379,	0.000010
3.835000,	0.336379,	0.000010
3.845000,	0.336379,	0.000010
3.855000,	0.336379,	0.000010
3.865000,	0.336379,	0.000010
3.875000,	0.336379,	0.000010
3.885000,	0.336379,	0.000010
3.895000,	0.336379,	0.000010
3.905000,	0.336379,	0.000010
3.915000,	0.336379,	0.000010
3.925000,	0.336379,	0.000010
3.935000,	0.336379,	0.000010
3.945000,	0.336379,	0.000010
3.955000,	0.336379,	0.000010
3.965000,	0.336379,	0.000010
3.975000,	0.336379,	0.000010
3.985000,	0.336379,	0.000010
3.995000,	0.336379,	0.000010
0.005000,	0.053472,	0.000015
0.015000,	0.053472,	0.000015
0.025000,	0.053472,	0.000015
0.035000,	0.053472,	0.000015
0.045000,	0.053472,	0.000015
0.055000,	0.053472,	0.000015
0.065000,	0.053472,	0.000015
0.075000,	0.053472,	0.000015
0.085000,	0.053472,	0.000015
0.095000,	0.053472,	0.000015
0.105000,	0.053472,	0.000015
0.115000,	0.053472,	0.000015
0.125000,	0.053472,	0.000015
0.135000,	0.053472,	0.000015
0.145000,	0.053472,	0.000015
0.155000,	0.053472,	0.000015
0.165000,	0.053472,	0.000015
0.175000,	0.053472,	0.000015
0.185000,	0.053472,	0.000015
0.195000,	0.053472,	0.000015
0.205000,	0.053472,	0.000015
0.215000,	0.053472,	0.000015
0.225000,	0.053472,	0.000015
0.235000,	0.053472,	0.000015
0.245000,	0.053472,	0.000015
0.255000,	0.053472,	0.000015
0.265000,	0.053472,	0.000015
0.275000,	0.053472,	0.000015
0.285000,	0.053472,	0.000015
0.295000,	0.053472,	0.000015
0.305000,	0.053472,	0.000015
0.315000,	0.053472,	0.000015
0.325000,	0.053472,	0.000015
0.335000,	0.053472,	0.000015
0.345000,	0.053472,	0.000015
0.355000,	0.053472,	0.000015
0.365000,	0.053472,	0.000015
0.375000,	0.053472,	0.000015
0.385000,	0.053472,	0.000015
0.395000,	0.053472,	0.000015
0.405000,	0.053472,	0.000015
0.415000,	0.053472,	0.000015
0.425000,	0.053472,	0.000015
0.435000,	0.053472,	0.000015
0.445000,	0.053472,	0.000015
0.455000,	0.053472,	0.000015
0.465000,	0.053472,	0.000015
0.475000,	0.053472,	0.000015
0.485000,	0.053472,	0.000015
0.495000,	0.053472,	0.000015
0.505000,	0.053472,	0.000015
0.515000,	0.053472,	0.000015
0.525000,	0.053472,	0.000015
0.535000,	0.053472,	0.000015
0.545000,	0.053472,	0.000015
0.555000,	0.053472,	0.000015
0.565000,	0.053472,	0.000015
0.575000,	0.053472,	0.000015
0.585000,	0.053472,	0.000015
0.595000,	0.053472,	0.000015
0.605000,	0.053472,	0.000015
0.615000,	0.053472,	0.000015
0.625000,	0.053472,	0.000015
0.635000,	0.053472,	0.000015
0.645000,	0.053472,	0.000015
0.655000,	0.053472,	0.000015
0.665000,	0.053472,	0.000015
0.675000,	0.053472,	0.000015
0.685000,	0.053472,	0.000015
0.695000,	0.053472,	0.000015
0.705000,	0.053472,	0.000015
0.715000,	0.053472,	0.000015
0.725000,	0.053472,	0.000015
0.735000,	0.053472,	0.000015
0.745000,	0.053472,	0.000015
0.755000,	0.053472,	0.000015
0.765000,	0.053472,	0.000015
0.775000,	0.053472,	0.000015
0.785000,	0.053472,	0.000015
0.795000,	0.053472,	0.000015
0.805000,	0.053472,	0.000015
0.815000,	0.053472,	0.000015
0.825000,	0.053472,	0.000015
0.835000,	0.053472,	0.000015
0.845000,	0.053472,	0.000015
0.855000,	0.053472,	0.000015
0.865000,	0.053472,	0.000015
0.875000,	0.053472,	0.000015
0.885000,	0.053472,	0.000015
0.895000,	0.053472,	0.000015
0.905000,	0.053472,	0.000015
0.915000,	0.053472,	0.000015
0.925000,	0.053472,	0.000015
0.935000,	0.053472,	0.000015
0.945000,	0.053472,	0.000015
0.955000,	0.053472,	0.000015
0.965000,	0.053472,	0.000015
0.975000,	0.053472,	0.000015
0.985000,	0.053472,	0.000015
0.995000,	0.053472,	0.000015
1.005000,	0.054892,	0.000015
1.015000,	0.057732,	0.000015
1.025000,	0.060571,	0.000015
1.035000,	0.063411,	0.000015
1.045000,	0.066250,	0.000015
1.055000,	0.069090,	0.000015
1.065000,	0.071929,	0.000015
1.075000,	0.074769,	0.000015
1.085000,	0.077609,	0.000015
1.095000,	0.080449,	0.000015
1.105000,	0.083288,	0.000015
1.115000,	0.086128,	0.000015
1.125000,	0.088967,	0.000015
1.135000,	0.091806,	0.000015
1.145000,	0.094646,	0.000015
1.155000,	0.097486,	0.000015
1.165000,	0.100325,	0.000014
1.175000,	0.103165,	0.000014
1.185000,	0.106005,	0.000014
1.195000,	0.108844,	0.000014
1.205000,	0.111684,	0.000014
1.215000,	0.114523,	0.000014
1.225000,	0.117363,	0.000014
1.235000,	0.120202,	0.000014
1.245000,	0.123042,	0.000014
1.255000,	0.125882,	0.000014
1.265000,	0.128721,	0.000014
1.275000,	0.131561,	0.000014
1.285000,	0.134400,	0.000014
1.295000,	0.137240,	0.000014
1.305000,	0.140080,	0.000014
1.315000,	0.142919,	0.000014
1.325000,	0.145759,	0.000014
1.335000,	0.148598,	0.000014
1.345000,	0.151438,	0.000014
1.355000,	0.154277,	0.000014
1.365000,	0.157117,	0.000014
1.375000,	0.159957,	0.000014
1.385000,	0.162796,	0.000013
1.395000,	0.165636,	0.000013
1.405000,	0.168476,	0.000013
1.415000,	0.171315,	0.000013
1.425000,	0.174154,	0.000013
1.435000,	0.176994,	0.000013
1.445000,	0.179834,	0.000013
1.455000,	0.182673,	0.000013
1.465000,	0.185513,	0.000013
1.475000,	0.188353,	0.000013
1.485000,	0.191192,	0.000013
1.495000,	0.194031,	0.000013
1.505000,	0.196871,	0.000013
1.515000,	0.199711,	0.000013
1.525000,	0.202550,	0.000013
1.535000,	0.205390,	0.000013
1.545000,	0.208230,	0.000013
1.555000,	0.211069,	0.000013
1.565000,	0.213909,	0.000013
1.575000,	0.216749,	0.000013
1.585000,	0.219588,	0.000013
1.595000,	0.222427,	0.000013
1.605000,	0.225267,	0.000012
1.615000,	0.228107,	0.000012
1.625000,	0.230946,	0.000012
1.635000,	0.233786,	0.000012
1.645000,	0.236625,	0.000012
1.655000,	0.239465,	0.000012
1.665000,	0.242305,	0.000012
1.675000,	0.245144,	0.000012
1.685000,	0.247984,	0.000012
1.695000,	0.250823,	0.000012
1.705000,	0.253663,	0.000012
1.715000,	0.256503,	0.000012
1.725000,	0.259342,	0.000012
1.735000,	0.262181,	0.000012
1.745000,	0.265021,	0.000012
1.755000,	0.267861,	0.000012
1.765000,	0.270701,	0.000012
1.775000,	0.273540,	0.000012
1.785000,	0.276380,	0.000012
1.795000,	0.279219,	0.000012
1.805000,	0.282058,	0.000012
1.815000,	0.284898,	0.000012
1.825000,	0.287738,	0.000011
1.835000,	0.290578,	0.000011
1.845000,	0.293417,	0.000011
1.855000,	0.296257,	0.000011
1.865000,	0.299096,	0.000011
1.875000,	0.301936,	0.000011
1.885000,	0.304775,	0.000011
1.895000,	0.307615,	0.000011
1.905000,	0.310455,	0.000011
1.915000,	0.313294,	0.000011
1.925000,	0.316134,	0.000011
1.935000,	0.318974,	0.000011
1.945000,	0.321813,	0.000011
1.955000,	0.324652,	0.000011
1.965000,	0.327492,	0.000011
1.975000,	0.330332,	0.000011
1.985000,	0.333171,	0.000011
1.995000,	0.336011,	0.000011
2.005000,	0.337431,	0.000011
2.015000,	0.337431,	0.000011
2.025000,	0.337431,	0.000011
2.035000,	0.337431,	0.000011
2.045000,	0.337431,	0.000011
2.055000,	0.337431,	0.000011
2.065000,	0.337431,	0.000011
2.075000,	0.337431,	0.000011
2.085000,	0.337431,	0.000011
2.095000,	0.337431,	0.000011
2.105000,	0.337431,	0.000011
2.115000,	0.337431,	0.000011
2.125000,	0.337431,	0.000011
2.135000,	0.337431,	0.000011
2.145000,	0.337431,	0.000011
2.155000,	0.337431,	0.000011
2.165000,	0.337431,	0.000011
2.175000,	0.337431,	0.000011
2.185000,	0.337431,	0.000011
2.195000,	0.337431,	0.000011
2.205000,	0.337431,	0.000011
2.215000,	0.337431,	0.000011
2.225000,	0.337431,	0.000011
2.235000,	0.337431,	0.000011
2.245000,	0.337431,	0.000011
2.255000,	0.337431,	0.000011
2.265000,	0.337431,	0.000011
2.275000,	0.337431,	0.000011
2.285000,	0.337431,	0.000011
2.295000,	0.337431,	0.000011
2.305000,	0.337431,	0.000011