TITLE = "MeshVolumeStats"
VARIABLES = "X", "Y", "VOL"
ZONE I=100, J=100, DATAPACKING=POINT
0.015000,	0.000037,	0.000002
0.045000,	0.000037,	0.000002
0.075000,	0.000037,	0.000002
0.105000,	0.000037,	0.000002
0.135000,	0.000037,	0.000002
0.165000,	0.000037,	0.000002
0.195000,	0.000037,	0.000002
0.225000,	0.000037,	0.000002
0.255000,	0.000037,	0.000002
0.285000,	0.000037,	0.000002
0.315000,	0.000037,	0.000002
0.345000,	0.000037,	0.000002
0.375000,	0.000037,	0.000002
0.405000,	0.000037,	0.000002
0.435000,	0.000037,	0.000002
0.465000,	0.000037,	0.000002
0.495000,	0.000037,	0.000002
0.525000,	0.000037,	0.000002
0.555000,	0.000037,	0.000002
0.585000,	0.000037,	0.000002
0.615000,	0.000037,	0.000002
0.645000,	0.000037,	0.000002
0.675000,	0.000037,	0.000002
0.705000,	0.000037,	0.000002
0.735000,	0.000037,	0.000002
0.765000,	0.000037,	0.000002
0.795000,	0.000037,	0.000002
0.825000,	0.000037,	0.000002
0.855000,	0.000037,	0.000002
0.885000,	0.000037,	0.000002
0.915000,	0.000037,	0.000002
0.945000,	0.000037,	0.000002
0.975000,	0.000037,	0.000002
1.005000,	0.000037,	0.000002
1.035000,	0.000037,	0.000002
1.065000,	0.000037,	0.000002
1.095000,	0.000037,	0.000002
1.125000,	0.000037,	0.000002
1.155000,	0.000037,	0.000002
1.185000,	0.000037,	0.000002
1.215000,	0.000037,	0.000002
1.245000,	0.000037,	0.000002
1.275000,	0.000037,	0.000002
1.305000,	0.000037,	0.000002
1.335000,	0.000037,	0.000002
1.365000,	0.000037,	0.000002
1.395000,	0.000037,	0.000002
1.425000,	0.000037,	0.000002
1.455000,	0.000037,	0.000002
1.485000,	0.000037,	0.000002
1.515000,	0.000037,	0.000002
1.545000,	0.000037,	0.000002
1.575000,	0.000037,	0.000002
1.605000,	0.000037,	0.000002
1.635000,	0.000037,	0.000002
1.665000,	0.000037,	0.000002
1.695000,	0.000037,	0.000002
1.725000,	0.000037,	0.000002
1.755000,	0.000037,	0.000002
1.785000,	0.000037,	0.000002
1.815000,	0.000037,	0.000002
1.845000,	0.000037,	0.000002
1.875000,	0.000037,	0.000002
1.905000,	0.000037,	0.000002
1.935000,	0.000037,	0.000002
1.965000,	0.000037,	0.000002
1.995000,	0.000037,	0.000002
2.025000,	0.000037,	0.000002
2.055000,	0.000037,	0.000002
2.085000,	0.000037,	0.000002
2.115000,	0.000037,	0.000002
2.145000,	0.000037,	0.000002
2.175000,	0.000037,	0.000002
2.205000,	0.000037,	0.000002
2.235000,	0.000037,	0.000002
2.265000,	0.000037,	0.000002
2.295000,	0.000037,	0.000002
2.325000,	0.000037,	0.000002
2.355000,	0.000037,	0.000002
2.385000,	0.000037,	0.000002
2.415000,	0.000037,	0.000002
2.445000,	0.000037,	0.000002
2.475000,	0.000037,	0.000002
2.505000,	0.000037,	0.000002
2.535000,	0.000037,	0.000002
2.565000,	0.000037,	0.000002
2.595000,	0.000037,	0.000002
2.625000,	0.000037,	0.000002
2.655000,	0.000037,	0.000002
2.685000,	0.000037,	0.000002
2.715000,	0.000037,	0.000002
2.745000,	0.000037,	0.000002
2.775000,	0.000037,	0.000002
2.805000,	0.000037,	0.000002
2.835000,	0.000037,	0.000002
2.865000,	0.000037,	0.000002
2.895000,	0.000037,	0.000002
2.925000,	0.000037,	0.000002
2.955000,	0.000037,	0.000002
2.985000,	0.000037,	0.000002
0.015000,	0.000186,	0.000007
0.045000,	0.000186,	0.000007
0.075000,	0.000186,	0.000007
0.105000,	0.000186,	0.000007
0.135000,	0.000186,	0.000007
0.165000,	0.000186,	0.000007
0.195000,	0.000186,	0.000007
0.225000,	0.000186,	0.000007
0.255000,	0.000186,	0.000007
0.285000,	0.000186,	0.000007
0.315000,	0.000186,	0.000007
0.345000,	0.000186,	0.000007
0.375000,	0.000186,	0.000007
0.405000,	0.000186,	0.000007
0.435000,	0.000186,	0.000007
0.465000,	0.000186,	0.000007
0.495000,	0.000186,	0.000007
0.525000,	0.000186,	0.000007
0.555000,	0.000186,	0.000007
0.585000,	0.000186,	0.000007
0.615000,	0.000186,	0.000007
0.645000,	0.000186,	0.000007
0.675000,	0.000186,	0.000007
0.705000,	0.000186,	0.000007
0.735000,	0.000186,	0.000007
0.765000,	0.000186,	0.000007
0.795000,	0.000186,	0.000007
0.825000,	0.000186,	0.000007
0.855000,	0.000186,	0.000007
0.885000,	0.000186,	0.000007
0.915000,	0.000186,	0.000007
0.945000,	0.000186,	0.000007
0.975000,	0.000186,	0.000007
1.005000,	0.000186,	0.000007
1.035000,	0.000186,	0.000007
1.065000,	0.000186,	0.000007
1.095000,	0.000186,	0.000007
1.125000,	0.000186,	0.000007
1.155000,	0.000186,	0.000007
1.185000,	0.000186,	0.000007
1.215000,	0.000186,	0.000007
1.245000,	0.000186,	0.000007
1.275000,	0.000186,	0.000007
1.305000,	0.000186,	0.000007
1.335000,	0.000186,	0.000007
1.365000,	0.000186,	0.000007
1.395000,	0.000186,	0.000007
1.425000,	0.000186,	0.000007
1.455000,	0.000186,	0.000007
1.485000,	0.000186,	0.000007
1.515000,	0.000186,	0.000007
1.545000,	0.000186,	0.000007
1.575000,	0.000186,	0.000007
1.605000,	0.000186,	0.000007
1.635000,	0.000186,	0.000007
1.665000,	0.000186,	0.000007
1.695000,	0.000186,	0.000007
1.725000,	0.000186,	0.000007
1.755000,	0.000186,	0.000007
1.785000,	0.000186,	0.000007
1.815000,	0.000186,	0.000007
1.845000,	0.000186,	0.000007
1.875000,	0.000186,	0.000007
1.905000,	0.000186,	0.000007
1.935000,	0.000186,	0.000007
1.965000,	0.000186,	0.000007
1.995000,	0.000186,	0.000007
2.025000,	0.000186,	0.000007
2.055000,	0.000186,	0.000007
2.085000,	0.000186,	0.000007
2.115000,	0.000186,	0.000007
2.145000,	0.000186,	0.000007
2.175000,	0.000186,	0.000007
2.205000,	0.000186,	0.000007
2.235000,	0.000186,	0.000007
2.265000,	0.000186,	0.000007
2.295000,	0.000186,	0.000007
2.325000,	0.000186,	0.000007
2.355000,	0.000186,	0.000007
2.385000,	0.000186,	0.000007
2.415000,	0.000186,	0.000007
2.445000,	0.000186,	0.000007
2.475000,	0.000186,	0.000007
2.505000,	0.000186,	0.000007
2.535000,	0.000186,	0.000007
2.565000,	0.000186,	0.000007
2.595000,	0.000186,	0.000007
2.625000,	0.000186,	0.000007
2.655000,	0.000186,	0.000007
2.685000,	0.000186,	0.000007
2.715000,	0.000186,	0.000007
2.745000,	0.000186,	0.000007
2.775000,	0.000186,	0.000007
2.805000,	0.000186,	0.000007
2.835000,	0.000186,	0.000007
2.865000,	0.000186,	0.000007
2.895000,	0.000186,	0.000007
2.925000,	0.000186,	0.000007
2.955000,	0.000186,	0.000007
2.985000,	0.000186,	0.000007
0.015000,	0.000483,	0.000011
0.045000,	0.000483,	0.000011
0.075000,	0.000483,	0.000011
0.105000,	0.000483,	0.000011
0.135000,	0.000483,	0.000011
0.165000,	0.000483,	0.000011
0.195000,	0.000483,	0.000011
0.225000,	0.000483,	0.000011
0.255000,	0.000483,	0.000011
0.285000,	0.000483,	0.000011
0.315000,	0.000483,	0.000011
0.345000,	0.000483,	0.000011
0.375000,	0.000483,	0.000011
0.405000,	0.000483,	0.000011
0.435000,	0.000483,	0.000011
0.465000,	0.000483,	0.000011
0.495000,	0.000483,	0.000011
0.525000,	0.000483,	0.000011
0.555000,	0.000483,	0.000011
0.585000,	0.000483,	0.000011
0.615000,	0.000483,	0.000011
0.645000,	0.000483,	0.000011
0.675000,	0.000483,	0.000011
0.705000,	0.000483,	0.000011
0.735000,	0.000483,	0.000011
0.765000,	0.000483,	0.000011
0.795000,	0.000483,	0.000011
0.825000,	0.000483,	0.000011
0.855000,	0.000483,	0.000011
0.885000,	0.000483,	0.000011
0.915000,	0.000483,	0.000011
0.945000,	0.000483,	0.000011
0.975000,	0.000483,	0.000011
1.005000,	0.000483,	0.000011
1.035000,	0.000483,	0.000011
1.065000,	0.000483,	0.000011
1.095000,	0.000483,	0.000011
1.125000,	0.000483,	0.000011
1.155000,	0.000483,	0.000011
1.185000,	0.000483,	0.000011
1.215000,	0.000483,	0.000011
1.245000,	0.000483,	0.000011
1.275000,	0.000483,	0.000011
1.305000,	0.000483,	0.000011
1.335000,	0.000483,	0.000011
1.365000,	0.000483,	0.000011
1.395000,	0.000483,	0.000011
1.425000,	0.000483,	0.000011
1.455000,	0.000483,	0.000011
1.485000,	0.000483,	0.000011
1.515000,	0.000483,	0.000011
1.545000,	0.000483,	0.000011
1.575000,	0.000483,	0.000011
1.605000,	0.000483,	0.000011
1.635000,	0.000483,	0.000011
1.665000,	0.000483,	0.000011
1.695000,	0.000483,	0.000011
1.725000,	0.000483,	0.000011
1.755000,	0.000483,	0.000011
1.785000,	0.000483,	0.000011
1.815000,	0.000483,	0.000011
1.845000,	0.000483,	0.000011
1.875000,	0.000483,	0.000011
1.905000,	0.000483,	0.000011
1.935000,	0.000483,	0.000011
1.965000,	0.000483,	0.000011
1.995000,	0.000483,	0.000011
2.025000,	0.000483,	0.000011
2.055000,	0.000483,	0.000011
2.085000,	0.000483,	0.000011
2.115000,	0.000483,	0.000011
2.145000,	0.000483,	0.000011
2.175000,	0.000483,	0.000011
2.205000,	0.000483,	0.000011
2.235000,	0.000483,	0.000011
2.265000,	0.000483,	0.000011
2.295000,	0.000483,	0.000011
2.325000,	0.000483,	0.000011
2.355000,	0.000483,	0.000011
2.385000,	0.000483,	0.000011
2.415000,	0.000483,	0.000011
2.445000,	0.000483,	0.000011
2.475000,	0.000483,	0.000011
2.505000,	0.000483,	0.000011
2.535000,	0.000483,	0.000011
2.565000,	0.000483,	0.000011
2.595000,	0.000483,	0.000011
2.625000,	0.000483,	0.000011
2.655000,	0.000483,	0.000011
2.685000,	0.000483,	0.000011
2.715000,	0.000483,	0.000011
2.745000,	0.000483,	0.000011
2.775000,	0.000483,	0.000011
2.805000,	0.000483,	0.000011
2.835000,	0.000483,	0.000011
2.865000,	0.000483,	0.000011
2.895000,	0.000483,	0.000011
2.925000,	0.000483,	0.000011
2.955000,	0.000483,	0.000011
2.985000,	0.000483,	0.000011
0.015000,	0.000928,	0.000016
0.045000,	0.000928,	0.000016
0.075000,	0.000928,	0.000016
0.105000,	0.000928,	0.000016
0.135000,	0.000928,	0.000016
0.165000,	0.000928,	0.000016
0.195000,	0.000928,	0.000016
0.225000,	0.000928,	0.000016
0.255000,	0.000928,	0.000016
0.285000,	0.000928,	0.000016
0.315000,	0.000928,	0.000016
0.345000,	0.000928,	0.000016
0.375000,	0.000928,	0.000016
0.405000,	0.000928,	0.000016
0.435000,	0.000928,	0.000016
0.465000,	0.000928,	0.000016
0.495000,	0.000928,	0.000016
0.525000,	0.000928,	0.000016
0.555000,	0.000928,	0.000016
0.585000,	0.000928,	0.000016
0.615000,	0.000928,	0.000016
0.645000,	0.000928,	0.000016
0.675000,	0.000928,	0.000016
0.705000,	0.000928,	0.000016
0.735000,	0.000928,	0.000016
0.765000,	0.000928,	0.000016
0.795000,	0.000928,	0.000016
0.825000,	0.000928,	0.000016
0.855000,	0.000928,	0.000016
0.885000,	0.000928,	0.000016
0.915000,	0.000928,	0.000016
0.945000,	0.000928,	0.000016
0.975000,	0.000928,	0.000016
1.005000,	0.000928,	0.000016
1.035000,	0.000928,	0.000016
1.065000,	0.000928,	0.000016
1.095000,	0.000928,	0.000016
1.125000,	0.000928,	0.000016
1.155000,	0.000928,	0.000016
1.185000,	0.000928,	0.000016
1.215000,	0.000928,	0.000016
1.245000,	0.000928,	0.000016
1.275000,	0.000928,	0.000016
1.305000,	0.000928,	0.000016
1.335000,	0.000928,	0.000016
1.365000,	0.000928,	0.000016
1.395000,	0.000928,	0.000016
1.425000,	0.000928,	0.000016
1.455000,	0.000928,	0.000016
1.485000,	0.000928,	0.000016
1.515000,	0.000928,	0.000016
1.545000,	0.000928,	0.000016
1.575000,	0.000928,	0.000016
1.605000,	0.000928,	0.000016
1.635000,	0.000928,	0.000016
1.665000,	0.000928,	0.000016
1.695000,	0.000928,	0.000016
1.725000,	0.000928,	0.000016
1.755000,	0.000928,	0.000016
1.785000,	0.000928,	0.000016
1.815000,	0.000928,	0.000016
1.845000,	0.000928,	0.000016
1.875000,	0.000928,	0.000016
1.905000,	0.000928,	0.000016
1.935000,	0.000928,	0.000016
1.965000,	0.000928,	0.000016
1.995000,	0.000928,	0.000016
2.025000,	0.000928,	0.000016
2.055000,	0.000928,	0.000016
2.085000,	0.000928,	0.000016
2.115000,	0.000928,	0.000016
2.145000,	0.000928,	0.000016
2.175000,	0.000928,	0.000016
2.205000,	0.000928,	0.000016
2.235000,	0.000928,	0.000016
2.265000,	0.000928,	0.000016
2.295000,	0.000928,	0.000016
2.325000,	0.000928,	0.000016
2.355000,	0.000928,	0.000016
2.385000,	0.000928,	0.000016
2.415000,	0.000928,	0.000016
2.445000,	0.000928,	0.000016
2.475000,	0.000928,	0.000016
2.505000,	0.000928,	0.000016
2.535000,	0.000928,	0.000016
2.565000,	0.000928,	0.000016
2.595000,	0.000928,	0.000016
2.625000,	0.000928,	0.000016
2.655000,	0.000928,	0.000016
2.685000,	0.000928,	0.000016
2.715000,	0.000928,	0.000016
2.745000,	0.000928,	0.000016
2.775000,	0.000928,	0.000016
2.805000,	0.000928,	0.000016
2.835000,	0.000928,	0.000016
2.865000,	0.000928,	0.000016
2.895000,	0.000928,	0.000016
2.925000,	0.000928,	0.000016
2.955000,	0.000928,	0.000016
2.985000,	0.000928,	0.000016
0.015000,	0.001522,	0.000020
0.045000,	0.001522,	0.000020
0.075000,	0.001522,	0.000020
0.105000,	0.001522,	0.000020
0.135000,	0.001522,	0.000020
0.165000,	0.001522,	0.000020
0.195000,	0.001522,	0.000020
0.225000,	0.001522,	0.000020
0.255000,	0.001522,	0.000020
0.285000,	0.001522,	0.000020
0.315000,	0.001522,	0.000020
0.345000,	0.001522,	0.000020
0.375000,	0.001522,	0.000020
0.405000,	0.001522,	0.000020
0.435000,	0.001522,	0.000020
0.465000,	0.001522,	0.000020
0.495000,	0.001522,	0.000020
0.525000,	0.001522,	0.000020
0.555000,	0.001522,	0.000020
0.585000,	0.001522,	0.000020
0.615000,	0.001522,	0.000020
0.645000,	0.001522,	0.000020
0.675000,	0.001522,	0.000020
0.705000,	0.001522,	0.000020
0.735000,	0.001522,	0.000020
0.765000,	0.001522,	0.000020
0.795000,	0.001522,	0.000020
0.825000,	0.001522,	0.000020
0.855000,	0.001522,	0.000020
0.885000,	0.001522,	0.000020
0.915000,	0.001522,	0.000020
0.945000,	0.001522,	0.000020
0.975000,	0.001522,	0.000020
1.005000,	0.001522,	0.000020
1.035000,	0.001522,	0.000020
1.065000,	0.001522,	0.000020
1.095000,	0.001522,	0.000020
1.125000,	0.001522,	0.000020
1.155000,	0.001522,	0.000020
1.185000,	0.001522,	0.000020
1.215000,	0.001522,	0.000020
1.245000,	0.001522,	0.000020
1.275000,	0.001522,	0.000020
1.305000,	0.001522,	0.000020
1.335000,	0.001522,	0.000020
1.365000,	0.001522,	0.000020
1.395000,	0.001522,	0.000020
1.425000,	0.001522,	0.000020
1.455000,	0.001522,	0.000020
1.485000,	0.001522,	0.000020
1.515000,	0.001522,	0.000020
1.545000,	0.001522,	0.000020
1.575000,	0.001522,	0.000020
1.605000,	0.001522,	0.000020
1.635000,	0.001522,	0.000020
1.665000,	0.001522,	0.000020
1.695000,	0.001522,	0.000020
1.725000,	0.001522,	0.000020
1.755000,	0.001522,	0.000020
1.785000,	0.001522,	0.000020
1.815000,	0.001522,	0.000020
1.845000,	0.001522,	0.000020
1.875000,	0.001522,	0.000020
1.905000,	0.001522,	0.000020
1.935000,	0.001522,	0.000020
1.965000,	0.001522,	0.000020
1.995000,	0.001522,	0.000020
2.025000,	0.001522,	0.000020
2.055000,	0.001522,	0.000020
2.085000,	0.001522,	0.000020
2.115000,	0.001522,	0.000020
2.145000,	0.001522,	0.000020
2.175000,	0.001522,	0.000020
2.205000,	0.001522,	0.000020
2.235000,	0.001522,	0.000020
2.265000,	0.001522,	0.000020
2.295000,	0.001522,	0.000020
2.325000,	0.001522,	0.000020
2.355000,	0.001522,	0.000020
2.385000,	0.001522,	0.000020
2.415000,	0.001522,	0.000020
2.445000,	0.001522,	0.000020
2.475000,	0.001522,	0.000020
2.505000,	0.001522,	0.000020
2.535000,	0.001522,	0.000020
2.565000,	0.001522,	0.000020
2.595000,	0.001522,	0.000020
2.625000,	0.001522,	0.000020
2.655000,	0.001522,	0.000020
2.685000,	0.001522,	0.000020
2.715000,	0.001522,	0.000020
2.745000,	0.001522,	0.000020
2.775000,	0.001522,	0.000020
2.805000,	0.001522,	0.000020
2.835000,	0.001522,	0.000020
2.865000,	0.001522,	0.000020
2.895000,	0.001522,	0.000020
2.925000,	0.001522,	0.000020
2.955000,	0.001522,	0.000020
2.985000,	0.001522,	0.000020
0.015000,	0.002265,	0.000025
0.045000,	0.002265,	0.000025
0.075000,	0.002265,	0.000025
0.105000,	0.002265,	0.000025
0.135000,	0.002265,	0.000025
0.165000,	0.002265,	0.000025
0.195000,	0.002265,	0.000025
0.225000,	0.002265,	0.000025
0.255000,	0.002265,	0.000025
0.285000,	0.002265,	0.000025
0.315000,	0.002265,	0.000025
0.345000,	0.002265,	0.000025
0.375000,	0.002265,	0.000025
0.405000,	0.002265,	0.000025
0.435000,	0.002265,	0.000025
0.465000,	0.002265,	0.000025
0.495000,	0.002265,	0.000025
0.525000,	0.002265,	0.000025
0.555000,	0.002265,	0.000025
0.585000,	0.002265,	0.000025
0.615000,	0.002265,	0.000025
0.645000,	0.002265,	0.000025
0.675000,	0.002265,	0.000025
0.705000,	0.002265,	0.000025
0.735000,	0.002265,	0.000025
0.765000,	0.002265,	0.000025
0.795000,	0.002265,	0.000025
0.825000,	0.002265,	0.000025
0.855000,	0.002265,	0.000025
0.885000,	0.002265,	0.000025
0.915000,	0.002265,	0.000025
0.945000,	0.002265,	0.000025
0.975000,	0.002265,	0.000025
1.005000,	0.002265,	0.000025
1.035000,	0.002265,	0.000025
1.065000,	0.002265,	0.000025
1.095000,	0.002265,	0.000025
1.125000,	0.002265,	0.000025
1.155000,	0.002265,	0.000025
1.185000,	0.002265,	0.000025
1.215000,	0.002265,	0.000025
1.245000,	0.002265,	0.000025
1.275000,	0.002265,	0.000025
1.305000,	0.002265,	0.000025
1.335000,	0.002265,	0.000025
1.365000,	0.002265,	0.000025
1.395000,	0.002265,	0.000025
1.425000,	0.002265,	0.000025
1.455000,	0.002265,	0.000025
1.485000,	0.002265,	0.000025
1.515000,	0.002265,	0.000025
1.545000,	0.002265,	0.000025
1.575000,	0.002265,	0.000025
1.605000,	0.002265,	0.000025
1.635000,	0.002265,	0.000025
1.665000,	0.002265,	0.000025
1.695000,	0.002265,	0.000025
1.725000,	0.002265,	0.000025
1.755000,	0.002265,	0.000025
1.785000,	0.002265,	0.000025
1.815000,	0.002265,	0.000025
1.845000,	0.002265,	0.000025
1.875000,	0.002265,	0.000025
1.905000,	0.002265,	0.000025
1.935000,	0.002265,	0.000025
1.965000,	0.002265,	0.000025
1.995000,	0.002265,	0.000025
2.025000,	0.002265,	0.000025
2.055000,	0.002265,	0.000025
2.085000,	0.002265,	0.000025
2.115000,	0.002265,	0.000025
2.145000,	0.002265,	0.000025
2.175000,	0.002265,	0.000025
2.205000,	0.002265,	0.000025
2.235000,	0.002265,	0.000025
2.265000,	0.002265,	0.000025
2.295000,	0.002265,	0.000025
2.325000,	0.002265,	0.000025
2.355000,	0.002265,	0.000025
2.385000,	0.002265,	0.000025
2.415000,	0.002265,	0.000025
2.445000,	0.002265,	0.000025
2.475000,	0.002265,	0.000025
2.505000,	0.002265,	0.000025
2.535000,	0.002265,	0.000025
2.565000,	0.002265,	0.000025
2.595000,	0.002265,	0.000025
2.625000,	0.002265,	0.000025
2.655000,	0.002265,	0.000025
2.685000,	0.002265,	0.000025
2.715000,	0.002265,	0.000025
2.745000,	0.002265,	0.000025
2.775000,	0.002265,	0.000025
2.805000,	0.002265,	0.000025
2.835000,	0.002265,	0.000025
2.865000,	0.002265,	0.000025
2.895000,	0.002265,	0.000025
2.925000,	0.002265,	0.000025
2.955000,	0.002265,	0.000025
2.985000,	0.002265,	0.000025
0.015000,	0.003156,	0.000029
0.045000,	0.003156,	0.000029
0.075000,	0.003156,	0.000029
0.105000,	0.003156,	0.000029
0.135000,	0.003156,	0.000029
0.165000,	0.003156,	0.000029
0.195000,	0.003156,	0.000029
0.225000,	0.003156,	0.000029
0.255000,	0.003156,	0.000029
0.285000,	0.003156,	0.000029
0.315000,	0.003156,	0.000029
0.345000,	0.003156,	0.000029
0.375000,	0.003156,	0.000029
0.405000,	0.003156,	0.000029
0.435000,	0.003156,	0.000029
0.465000,	0.003156,	0.000029
0.495000,	0.003156,	0.000029
0.525000,	0.003156,	0.000029
0.555000,	0.003156,	0.000029
0.585000,	0.003156,	0.000029
0.615000,	0.003156,	0.000029
0.645000,	0.003156,	0.000029
0.675000,	0.003156,	0.000029
0.705000,	0.003156,	0.000029
0.735000,	0.003156,	0.000029
0.765000,	0.003156,	0.000029
0.795000,	0.003156,	0.000029
0.825000,	0.003156,	0.000029
0.855000,	0.003156,	0.000029
0.885000,	0.003156,	0.000029
0.915000,	0.003156,	0.000029
0.945000,	0.003156,	0.000029
0.975000,	0.003156,	0.000029
1.005000,	0.003156,	0.000029
1.035000,	0.003156,	0.000029
1.065000,	0.003156,	0.000029
1.095000,	0.003156,	0.000029
1.125000,	0.003156,	0.000029
1.155000,	0.003156,	0.000029
1.185000,	0.003156,	0.000029
1.215000,	0.003156,	0.000029
1.245000,	0.003156,	0.000029
1.275000,	0.003156,	0.000029
1.305000,	0.003156,	0.000029
1.335000,	0.003156,	0.000029
1.365000,	0.003156,	0.000029
1.395000,	0.003156,	0.000029
1.425000,	0.003156,	0.000029
1.455000,	0.003156,	0.000029
1.485000,	0.003156,	0.000029
1.515000,	0.003156,	0.000029
1.545000,	0.003156,	0.000029
1.575000,	0.003156,	0.000029
1.605000,	0.003156,	0.000029
1.635000,	0.003156,	0.000029
1.665000,	0.003156,	0.000029
1.695000,	0.003156,	0.000029
1.725000,	0.003156,	0.000029
1.755000,	0.003156,	0.000029
1.785000,	0.003156,	0.000029
1.815000,	0.003156,	0.000029
1.845000,	0.003156,	0.000029
1.875000,	0.003156,	0.000029
1.905000,	0.003156,	0.000029
1.935000,	0.003156,	0.000029
1.965000,	0.003156,	0.000029
1.995000,	0.003156,	0.000029
2.025000,	0.003156,	0.000029
2.055000,	0.003156,	0.000029
2.085000,	0.003156,	0.000029
2.115000,	0.003156,	0.000029
2.145000,	0.003156,	0.000029
2.175000,	0.003156,	0.000029
2.205000,	0.003156,	0.000029
2.235000,	0.003156,	0.000029
2.265000,	0.003156,	0.000029
2.295000,	0.003156,	0.000029
2.325000,	0.003156,	0.000029
2.355000,	0.003156,	0.000029
2.385000,	0.003156,	0.000029
2.415000,	0.003156,	0.000029
2.445000,	0.003156,	0.000029
2.475000,	0.003156,	0.000029
2.505000,	0.003156,	0.000029
2.535000,	0.003156,	0.000029
2.565000,	0.003156,	0.000029
2.595000,	0.003156,	0.000029
2.625000,	0.003156,	0.000029
2.655000,	0.003156,	0.000029
2.685000,	0.003156,	0.000029
2.715000,	0.003156,	0.000029
2.745000,	0.003156,	0.000029
2.775000,	0.003156,	0.000029
2.805000,	0.003156,	0.000029
2.835000,	0.003156,	0.000029
2.865000,	0.003156,	0.000029
2.895000,	0.003156,	0.000029
2.925000,	0.003156,	0.000029
2.955000,	0.003156,	0.000029
2.985000,	0.003156,	0.000029
0.015000,	0.004195,	0.000033
0.045000,	0.004195,	0.000033
0.075000,	0.004195,	0.000033
0.105000,	0.004195,	0.000033
0.135000,	0.004195,	0.000033
0.165000,	0.004195,	0.000033
0.195000,	0.004195,	0.000033
0.225000,	0.004195,	0.000033
0.255000,	0.004195,	0.000033
0.285000,	0.004195,	0.000033
0.315000,	0.004195,	0.000033
0.345000,	0.004195,	0.000033
0.375000,	0.004195,	0.000033
0.405000,	0.004195,	0.000033
0.435000,	0.004195,	0.000033
0.465000,	0.004195,	0.000033
0.495000,	0.004195,	0.000033
0.525000,	0.004195,	0.000033
0.555000,	0.004195,	0.000033
0.585000,	0.004195,	0.000033
0.615000,	0.004195,	0.000033
0.645000,	0.004195,	0.000033
0.675000,	0.004195,	0.000033
0.705000,	0.004195,	0.000033
0.735000,	0.004195,	0.000033
0.765000,	0.004195,	0.000033
0.795000,	0.004195,	0.000033
0.825000,	0.004195,	0.000033
0.855000,	0.004195,	0.000033
0.885000,	0.004195,	0.000033
0.915000,	0.004195,	0.000033
0.945000,	0.004195,	0.000033
0.975000,	0.004195,	0.000033
1.005000,	0.004195,	0.000033
1.035000,	0.004195,	0.000033
1.065000,	0.004195,	0.000033
1.095000,	0.004195,	0.000033
1.125000,	0.004195,	0.000033
1.155000,	0.004195,	0.000033
1.185000,	0.004195,	0.000033
1.215000,	0.004195,	0.000033
1.245000,	0.004195,	0.000033
1.275000,	0.004195,	0.000033
1.305000,	0.004195,	0.000033
1.335000,	0.004195,	0.000033
1.365000,	0.004195,	0.000033
1.395000,	0.004195,	0.000033
1.425000,	0.004195,	0.000033
1.455000,	0.004195,	0.000033
1.485000,	0.004195,	0.000033
1.515000,	0.004195,	0.000033
1.545000,	0.004195,	0.000033
1.575000,	0.004195,	0.000033
1.605000,	0.004195,	0.000033
1.635000,	0.004195,	0.000033
1.665000,	0.004195,	0.000033
1.695000,	0.004195,	0.000033
1.725000,	0.004195,	0.000033
1.755000,	0.004195,	0.000033
1.785000,	0.004195,	0.000033
1.815000,	0.004195,	0.000033
1.845000,	0.004195,	0.000033
1.875000,	0.004195,	0.000033
1.905000,	0.004195,	0.000033
1.935000,	0.004195,	0.000033
1.965000,	0.004195,	0.000033
1.995000,	0.004195,	0.000033
2.025000,	0.004195,	0.000033
2.055000,	0.004195,	0.000033
2.085000,	0.004195,	0.000033
2.115000,	0.004195,	0.000033
2.145000,	0.004195,	0.000033
2.175000,	0.004195,	0.000033
2.205000,	0.004195,	0.000033
2.235000,	0.004195,	0.000033
2.265000,	0.004195,	0.000033
2.295000,	0.004195,	0.000033
2.325000,	0.004195,	0.000033
2.355000,	0.004195,	0.000033
2.385000,	0.004195,	0.000033
2.415000,	0.004195,	0.000033
2.445000,	0.004195,	0.000033
2.475000,	0.004195,	0.000033
2.505000,	0.004195,	0.000033
2.535000,	0.004195,	0.000033
2.565000,	0.004195,	0.000033
2.595000,	0.004195,	0.000033
2.625000,	0.004195,	0.000033
2.655000,	0.004195,	0.000033
2.685000,	0.004195,	0.000033
2.715000,	0.004195,	0.000033
2.745000,	0.004195,	0.000033
2.775000,	0.004195,	0.000033
2.805000,	0.004195,	0.000033
2.835000,	0.004195,	0.000033
2.865000,	0.004195,	0.000033
2.895000,	0.004195,	0.000033
2.925000,	0.004195,	0.000033
2.955000,	0.004195,	0.000033
2.985000,	0.004195,	0.000033
0.015000,	0.005384,	0.000038
0.045000,	0.005384,	0.000038
0.075000,	0.005384,	0.000038
0.105000,	0.005384,	0.000038
0.135000,	0.005384,	0.000038
0.165000,	0.005384,	0.000038
0.195000,	0.005384,	0.000038
0.225000,	0.005384,	0.000038
0.255000,	0.005384,	0.000038
0.285000,	0.005384,	0.000038
0.315000,	0.005384,	0.000038
0.345000,	0.005384,	0.000038
0.375000,	0.005384,	0.000038
0.405000,	0.005384,	0.000038
0.435000,	0.005384,	0.000038
0.465000,	0.005384,	0.000038
0.495000,	0.005384,	0.000038
0.525000,	0.005384,	0.000038
0.555000,	0.005384,	0.000038
0.585000,	0.005384,	0.000038
0.615000,	0.005384,	0.000038
0.645000,	0.005384,	0.000038
0.675000,	0.005384,	0.000038
0.705000,	0.005384,	0.000038
0.735000,	0.005384,	0.000038
0.765000,	0.005384,	0.000038
0.795000,	0.005384,	0.000038
0.825000,	0.005384,	0.000038
0.855000,	0.005384,	0.000038
0.885000,	0.005384,	0.000038
0.915000,	0.005384,	0.000038
0.945000,	0.005384,	0.000038
0.975000,	0.005384,	0.000038
1.005000,	0.005384,	0.000038
1.035000,	0.005384,	0.000038
1.065000,	0.005384,	0.000038
1.095000,	0.005384,	0.000038
1.125000,	0.005384,	0.000038
1.155000,	0.005384,	0.000038
1.185000,	0.005384,	0.000038
1.215000,	0.005384,	0.000038
1.245000,	0.005384,	0.000038
1.275000,	0.005384,	0.000038
1.305000,	0.005384,	0.000038
1.335000,	0.005384,	0.000038
1.365000,	0.005384,	0.000038
1.395000,	0.005384,	0.000038
1.425000,	0.005384,	0.000038
1.455000,	0.005384,	0.000038
1.485000,	0.005384,	0.000038
1.515000,	0.005384,	0.000038
1.545000,	0.005384,	0.000038
1.575000,	0.005384,	0.000038
1.605000,	0.005384,	0.000038
1.635000,	0.005384,	0.000038
1.665000,	0.005384,	0.000038
1.695000,	0.005384,	0.000038
1.725000,	0.005384,	0.000038
1.755000,	0.005384,	0.000038
1.785000,	0.005384,	0.000038
1.815000,	0.005384,	0.000038
1.845000,	0.005384,	0.000038
1.875000,	0.005384,	0.000038
1.905000,	0.005384,	0.000038
1.935000,	0.005384,	0.000038
1.965000,	0.005384,	0.000038
1.995000,	0.005384,	0.000038
2.025000,	0.005384,	0.000038
2.055000,	0.005384,	0.000038
2.085000,	0.005384,	0.000038
2.115000,	0.005384,	0.000038
2.145000,	0.005384,	0.000038
2.175000,	0.005384,	0.000038
2.205000,	0.005384,	0.000038
2.235000,	0.005384,	0.000038
2.265000,	0.005384,	0.000038
2.295000,	0.005384,	0.000038
2.325000,	0.005384,	0.000038
2.355000,	0.005384,	0.000038
2.385000,	0.005384,	0.000038
2.415000,	0.005384,	0.000038
2.445000,	0.005384,	0.000038
2.475000,	0.005384,	0.000038
2.505000,	0.005384,	0.000038
2.535000,	0.005384,	0.000038
2.565000,	0.005384,	0.000038
2.595000,	0.005384,	0.000038
2.625000,	0.005384,	0.000038
2.655000,	0.005384,	0.000038
2.685000,	0.005384,	0.000038
2.715000,	0.005384,	0.000038
2.745000,	0.005384,	0.000038
2.775000,	0.005384,	0.000038
2.805000,	0.005384,	0.000038
2.835000,	0.005384,	0.000038
2.865000,	0.005384,	0.000038
2.895000,	0.005384,	0.000038
2.925000,	0.005384,	0.000038
2.955000,	0.005384,	0.000038
2.985000,	0.005384,	0.000038
0.015000,	0.006721,	0.000042
0.045000,	0.006721,	0.000042
0.075000,	0.006721,	0.000042
0.105000,	0.006721,	0.000042
0.135000,	0.006721,	0.000042
0.165000,	0.006721,	0.000042
0.195000,	0.006721,	0.000042
0.225000,	0.006721,	0.000042
0.255000,	0.006721,	0.000042
0.285000,	0.006721,	0.000042
0.315000,	0.006721,	0.000042
0.345000,	0.006721,	0.000042
0.375000,	0.006721,	0.000042
0.405000,	0.006721,	0.000042
0.435000,	0.006721,	0.000042
0.465000,	0.006721,	0.000042
0.495000,	0.006721,	0.000042
0.525000,	0.006721,	0.000042
0.555000,	0.006721,	0.000042
0.585000,	0.006721,	0.000042
0.615000,	0.006721,	0.000042
0.645000,	0.006721,	0.000042
0.675000,	0.006721,	0.000042
0.705000,	0.006721,	0.000042
0.735000,	0.006721,	0.000042
0.765000,	0.006721,	0.000042
0.795000,	0.006721,	0.000042
0.825000,	0.006721,	0.000042
0.855000,	0.006721,	0.000042
0.885000,	0.006721,	0.000042
0.915000,	0.006721,	0.000042
0.945000,	0.006721,	0.000042
0.975000,	0.006721,	0.000042
1.005000,	0.006721,	0.000042
1.035000,	0.006721,	0.000042
1.065000,	0.006721,	0.000042
1.095000,	0.006721,	0.000042
1.125000,	0.006721,	0.000042
1.155000,	0.006721,	0.000042
1.185000,	0.006721,	0.000042
1.215000,	0.006721,	0.000042
1.245000,	0.006721,	0.000042
1.275000,	0.006721,	0.000042
1.305000,	0.006721,	0.000042
1.335000,	0.006721,	0.000042
1.365000,	0.006721,	0.000042
1.395000,	0.006721,	0.000042
1.425000,	0.006721,	0.000042
1.455000,	0.006721,	0.000042
1.485000,	0.006721,	0.000042
1.515000,	0.006721,	0.000042
1.545000,	0.006721,	0.000042
1.575000,	0.006721,	0.000042
1.605000,	0.006721,	0.000042
1.635000,	0.006721,	0.000042
1.665000,	0.006721,	0.000042
1.695000,	0.006721,	0.000042
1.725000,	0.006721,	0.000042
1.755000,	0.006721,	0.000042
1.785000,	0.006721,	0.000042
1.815000,	0.006721,	0.000042
1.845000,	0.006721,	0.000042
1.875000,	0.006721,	0.000042
1.905000,	0.006721,	0.000042
1.935000,	0.006721,	0.000042
1.965000,	0.006721,	0.000042
1.995000,	0.006721,	0.000042
2.025000,	0.006721,	0.000042
2.055000,	0.006721,	0.000042
2.085000,	0.006721,	0.000042
2.115000,	0.006721,	0.000042
2.145000,	0.006721,	0.000042
2.175000,	0.006721,	0.000042
2.205000,	0.006721,	0.000042
2.235000,	0.006721,	0.000042
2.265000,	0.006721,	0.000042
2.295000,	0.006721,	0.000042
2.325000,	0.006721,	0.000042
2.355000,	0.006721,	0.000042
2.385000,	0.006721,	0.000042
2.415000,	0.006721,	0.000042
2.445000,	0.006721,	0.000042
2.475000,	0.006721,	0.000042
2.505000,	0.006721,	0.000042
2.535000,	0.006721,	0.000042
2.565000,	0.006721,	0.000042
2.595000,	0.006721,	0.000042
2.625000,	0.006721,	0.000042
2.655000,	0.006721,	0.000042
2.685000,	0.006721,	0.000042
2.715000,	0.006721,	0.000042
2.745000,	0.006721,	0.000042
2.775000,	0.006721,	0.000042
2.805000,	0.006721,	0.000042
2.835000,	0.006721,	0.000042
2.865000,	0.006721,	0.000042
2.895000,	0.006721,	0.000042
2.925000,	0.006721,	0.000042
2.955000,	0.006721,	0.000042
2.985000,	0.006721,	0.000042
0.015000,	0.008206,	0.000047
0.045000,	0.008206,	0.000047
0.075000,	0.008206,	0.000047
0.105000,	0.008206,	0.000047
0.135000,	0.008206,	0.000047
0.165000,	0.008206,	0.000047
0.195000,	0.008206,	0.000047
0.225000,	0.008206,	0.000047
0.255000,	0.008206,	0.000047
0.285000,	0.008206,	0.000047
0.315000,	0.008206,	0.000047
0.345000,	0.008206,	0.000047
0.375000,	0.008206,	0.000047
0.405000,	0.008206,	0.000047
0.435000,	0.008206,	0.000047
0.465000,	0.008206,	0.000047
0.495000,	0.008206,	0.000047
0.525000,	0.008206,	0.000047
0.555000,	0.008206,	0.000047
0.585000,	0.008206,	0.000047
0.615000,	0.008206,	0.000047
0.645000,	0.008206,	0.000047
0.675000,	0.008206,	0.000047
0.705000,	0.008206,	0.000047
0.735000,	0.008206,	0.000047
0.765000,	0.008206,	0.000047
0.795000,	0.008206,	0.000047
0.825000,	0.008206,	0.000047
0.855000,	0.008206,	0.000047
0.885000,	0.008206,	0.000047
0.915000,	0.008206,	0.000047