TITLE = "MeshVolumeStats"
VARIABLES = "X", "Y", "VOL"
ZONE I=100, J=200, DATAPACKING=POINT
0.020000,	0.002500,	0.000200
0.060000,	0.002500,	0.000200
0.100000,	0.002500,	0.000200
0.140000,	0.002500,	0.000200
0.180000,	0.002500,	0.000200
0.220000,	0.002500,	0.000200
0.260000,	0.002500,	0.000200
0.300000,	0.002500,	0.000200
0.340000,	0.002500,	0.000200
0.380000,	0.002500,	0.000200
0.420000,	0.002500,	0.000200
0.460000,	0.002500,	0.000200
0.500000,	0.002500,	0.000200
0.540000,	0.002500,	0.000200
0.580000,	0.002500,	0.000200
0.620000,	0.002500,	0.000200
0.660000,	0.002500,	0.000200
0.700000,	0.002500,	0.000200
0.740000,	0.002500,	0.000200
0.780000,	0.002500,	0.000200
0.820000,	0.002500,	0.000200
0.860000,	0.002500,	0.000200
0.900000,	0.002500,	0.000200
0.940000,	0.002500,	0.000200
0.980000,	0.002500,	0.000200
1.020000,	0.002500,	0.000200
1.060000,	0.002500,	0.000200
1.100000,	0.002500,	0.000200
1.140000,	0.002500,	0.000200
1.180000,	0.002500,	0.000200
1.220000,	0.002500,	0.000200
1.260000,	0.002500,	0.000200
1.300000,	0.002500,	0.000200
1.340000,	0.002500,	0.000200
1.380000,	0.002500,	0.000200
1.420000,	0.002500,	0.000200
1.460000,	0.002500,	0.000200
1.500000,	0.002500,	0.000200
1.540000,	0.002500,	0.000200
1.580000,	0.002500,	0.000200
1.620000,	0.002500,	0.000200
1.660000,	0.002500,	0.000200
1.700000,	0.002500,	0.000200
1.740000,	0.002500,	0.000200
1.780000,	0.002500,	0.000200
1.820000,	0.002500,	0.000200
1.860000,	0.002500,	0.000200
1.900000,	0.002500,	0.000200
1.940000,	0.002500,	0.000200
1.980000,	0.002500,	0.000200
2.020000,	0.012488,	0.000199
2.060000,	0.032462,	0.000197
2.100000,	0.052437,	0.000195
2.140000,	0.072413,	0.000193
2.180000,	0.092387,	0.000191
2.220000,	0.112363,	0.000189
2.260000,	0.132338,	0.000187
2.300000,	0.152313,	0.000185
2.340000,	0.172287,	0.000183
2.380000,	0.192263,	0.000181
2.420000,	0.212238,	0.000179
2.460000,	0.232212,	0.000177
2.500000,	0.252188,	0.000175
2.540000,	0.272162,	0.000173
2.580000,	0.292137,	0.000171
2.620000,	0.312113,	0.000169
2.660000,	0.332087,	0.000167
2.700000,	0.352063,	0.000165
2.740000,	0.372038,	0.000163
2.780000,	0.392012,	0.000161
2.820000,	0.411988,	0.000159
2.860000,	0.431963,	0.000157
2.900000,	0.451937,	0.000155
2.940000,	0.471913,	0.000153
2.980000,	0.491888,	0.000151
3.020000,	0.511863,	0.000149
3.060000,	0.531837,	0.000147
3.100000,	0.551813,	0.000145
3.140000,	0.571788,	0.000143
3.180000,	0.591762,	0.000141
3.220000,	0.611738,	0.000139
3.260000,	0.631713,	0.000137
3.300000,	0.651687,	0.000135
3.340000,	0.671663,	0.000133
3.380000,	0.691638,	0.000131
3.420000,	0.711612,	0.000129
3.460000,	0.731587,	0.000127
3.500000,	0.751563,	0.000125
3.540000,	0.771537,	0.000123
3.580000,	0.791513,	0.000121
3.620000,	0.811488,	0.000119
3.660000,	0.831462,	0.000117
3.700000,	0.851437,	0.000115
3.740000,	0.871413,	0.000113
3.780000,	0.891388,	0.000111
3.820000,	0.911363,	0.000109
3.860000,	0.931337,	0.000107
3.900000,	0.951313,	0.000105
3.940000,	0.971287,	0.000103
3.980000,	0.991262,	0.000101
0.020000,	0.007525,	0.000202
0.060000,	0.007525,	0.000202
0.100000,	0.007525,	0.000202
0.140000,	0.007525,	0.000202
0.180000,	0.007525,	0.000202
0.220000,	0.007525,	0.000202
0.260000,	0.007525,	0.000202
0.300000,	0.007525,	0.000202
0.340000,	0.007525,	0.000202
0.380000,	0.007525,	0.000202
0.420000,	0.007525,	0.000202
0.460000,	0.007525,	0.000202
0.500000,	0.007525,	0.000202
0.540000,	0.007525,	0.000202
0.580000,	0.007525,	0.000202
0.620000,	0.007525,	0.000202
0.660000,	0.007525,	0.000202
0.700000,	0.007525,	0.000202
0.740000,	0.007525,	0.000202
0.780000,	0.007525,	0.000202
0.820000,	0.007525,	0.000202
0.860000,	0.007525,	0.000202
0.900000,	0.007525,	0.000202
0.940000,	0.007525,	0.000202
0.980000,	0.007525,	0.000202
1.020000,	0.007525,	0.000202
1.060000,	0.007525,	0.000202
1.100000,	0.007525,	0.000202
1.140000,	0.007525,	0.000202
1.180000,	0.007525,	0.000202
1.220000,	0.007525,	0.000202
1.260000,	0.007525,	0.000202
1.300000,	0.007525,	0.000202
1.340000,	0.007525,	0.000202
1.380000,	0.007525,	0.000202
1.420000,	0.007525,	0.000202
1.460000,	0.007525,	0.000202
1.500000,	0.007525,	0.000202
1.540000,	0.007525,	0.000202
1.580000,	0.007525,	0.000202
1.620000,	0.007525,	0.000202
1.660000,	0.007525,	0.000202
1.700000,	0.007525,	0.000202
1.740000,	0.007525,	0.000202
1.780000,	0.007525,	0.000202
1.820000,	0.007525,	0.000202
1.860000,	0.007525,	0.000202
1.900000,	0.007525,	0.000202
1.940000,	0.007525,	0.000202
1.980000,	0.007525,	0.000202
2.020000,	0.017487,	0.000201
2.060000,	0.037412,	0.000199
2.100000,	0.057337,	0.000197
2.140000,	0.077262,	0.000195
2.180000,	0.097186,	0.000193
2.220000,	0.117111,	0.000191
2.260000,	0.137036,	0.000189
2.300000,	0.156961,	0.000187
2.340000,	0.176885,	0.000185
2.380000,	0.196810,	0.000183
2.420000,	0.216735,	0.000181
2.460000,	0.236660,	0.000179
2.500000,	0.256584,	0.000177
2.540000,	0.276509,	0.000175
2.580000,	0.296434,	0.000173
2.620000,	0.316358,	0.000171
2.660000,	0.336283,	0.000169
2.700000,	0.356208,	0.000167
2.740000,	0.376133,	0.000165
2.780000,	0.396058,	0.000163
2.820000,	0.415982,	0.000161
2.860000,	0.435907,	0.000159
2.900000,	0.455832,	0.000157
2.940000,	0.475757,	0.000155
2.980000,	0.495681,	0.000152
3.020000,	0.515606,	0.000150
3.060000,	0.535531,	0.000148
3.100000,	0.555455,	0.000146
3.140000,	0.575380,	0.000144
3.180000,	0.595305,	0.000142
3.220000,	0.615230,	0.000140
3.260000,	0.635154,	0.000138
3.300000,	0.655079,	0.000136
3.340000,	0.675004,	0.000134
3.380000,	0.694929,	0.000132
3.420000,	0.714854,	0.000130
3.460000,	0.734778,	0.000128
3.500000,	0.754703,	0.000126
3.540000,	0.774628,	0.000124
3.580000,	0.794552,	0.000122
3.620000,	0.814477,	0.000120
3.660000,	0.834402,	0.000118
3.700000,	0.854327,	0.000116
3.740000,	0.874251,	0.000114
3.780000,	0.894176,	0.000112
3.820000,	0.914101,	0.000110
3.860000,	0.934026,	0.000108
3.900000,	0.953951,	0.000106
3.940000,	0.973875,	0.000104
3.980000,	0.993800,	0.000102
0.020000,	0.007525,	0.000202
0.060000,	0.007525,	0.000202
0.100000,	0.007525,	0.000202
0.140000,	0.007525,	0.000202
0.180000,	0.007525,	0.000202
0.220000,	0.007525,	0.000202
0.260000,	0.007525,	0.000202
0.300000,	0.007525,	0.000202
0.340000,	0.007525,	0.000202
0.380000,	0.007525,	0.000202
0.420000,	0.007525,	0.000202
0.460000,	0.007525,	0.000202
0.500000,	0.007525,	0.000202
0.540000,	0.007525,	0.000202
0.580000,	0.007525,	0.000202
0.620000,	0.007525,	0.000202
0.660000,	0.007525,	0.000202
0.700000,	0.007525,	0.000202
0.740000,	0.007525,	0.000202
0.780000,	0.007525,	0.000202
0.820000,	0.007525,	0.000202
0.860000,	0.007525,	0.000202
0.900000,	0.007525,	0.000202
0.940000,	0.007525,	0.000202
0.980000,	0.007525,	0.000202
1.020000,	0.007525,	0.000202
1.060000,	0.007525,	0.000202
1.100000,	0.007525,	0.000202
1.140000,	0.007525,	0.000202
1.180000,	0.007525,	0.000202
1.220000,	0.007525,	0.000202
1.260000,	0.007525,	0.000202
1.300000,	0.007525,	0.000202
1.340000,	0.007525,	0.000202
1.380000,	0.007525,	0.000202
1.420000,	0.007525,	0.000202
1.460000,	0.007525,	0.000202
1.500000,	0.007525,	0.000202
1.540000,	0.007525,	0.000202
1.580000,	0.007525,	0.000202
1.620000,	0.007525,	0.000202
1.660000,	0.007525,	0.000202
1.700000,	0.007525,	0.000202
1.740000,	0.007525,	0.000202
1.780000,	0.007525,	0.000202
1.820000,	0.007525,	0.000202
1.860000,	0.007525,	0.000202
1.900000,	0.007525,	0.000202
1.940000,	0.007525,	0.000202
1.980000,	0.007525,	0.000202
2.020000,	0.017487,	0.000201
2.060000,	0.037412,	0.000199
2.100000,	0.057337,	0.000197
2.140000,	0.077262,	0.000195
2.180000,	0.097186,	0.000193
2.220000,	0.117111,	0.000191
2.260000,	0.137036,	0.000189
2.300000,	0.156961,	0.000187
2.340000,	0.176885,	0.000185
2.380000,	0.196810,	0.000183
2.420000,	0.216735,	0.000181
2.460000,	0.236660,	0.000179
2.500000,	0.256584,	0.000177
2.540000,	0.276509,	0.000175
2.580000,	0.296434,	0.000173
2.620000,	0.316358,	0.000171
2.660000,	0.336283,	0.000169
2.700000,	0.356208,	0.000167
2.740000,	0.376133,	0.000165
2.780000,	0.396058,	0.000163
2.820000,	0.415982,	0.000161
2.860000,	0.435907,	0.000159
2.900000,	0.455832,	0.000157
2.940000,	0.475757,	0.000155
2.980000,	0.495681,	0.000152
3.020000,	0.515606,	0.000150
3.060000,	0.535531,	0.000148
3.100000,	0.555455,	0.000146
3.140000,	0.575380,	0.000144
3.180000,	0.595305,	0.000142
3.220000,	0.615230,	0.000140
3.260000,	0.635154,	0.000138
3.300000,	0.655079,	0.000136
3.340000,	0.675004,	0.000134
3.380000,	0.694929,	0.000132
3.420000,	0.714854,	0.000130
3.460000,	0.734778,	0.000128
3.500000,	0.754703,	0.000126
3.540000,	0.774628,	0.000124
3.580000,	0.794552,	0.000122
3.620000,	0.814477,	0.000120
3.660000,	0.834402,	0.000118
3.700000,	0.854327,	0.000116
3.740000,	0.874251,	0.000114
3.780000,	0.894176,	0.000112
3.820000,	0.914101,	0.000110
3.860000,	0.934026,	0.000108
3.900000,	0.953951,	0.000106
3.940000,	0.973875,	0.000104
3.980000,	0.993800,	0.000102
0.020000,	0.012600,	0.000204
0.060000,	0.012600,	0.000204
0.100000,	0.012600,	0.000204
0.140000,	0.012600,	0.000204
0.180000,	0.012600,	0.000204
0.220000,	0.012600,	0.000204
0.260000,	0.012600,	0.000204
0.300000,	0.012600,	0.000204
0.340000,	0.012600,	0.000204
0.380000,	0.012600,	0.000204
0.420000,	0.012600,	0.000204
0.460000,	0.012600,	0.000204
0.500000,	0.012600,	0.000204
0.540000,	0.012600,	0.000204
0.580000,	0.012600,	0.000204
0.620000,	0.012600,	0.000204
0.660000,	0.012600,	0.000204
0.700000,	0.012600,	0.000204
0.740000,	0.012600,	0.000204
0.780000,	0.012600,	0.000204
0.820000,	0.012600,	0.000204
0.860000,	0.012600,	0.000204
0.900000,	0.012600,	0.000204
0.940000,	0.012600,	0.000204
0.980000,	0.012600,	0.000204
1.020000,	0.012600,	0.000204
1.060000,	0.012600,	0.000204
1.100000,	0.012600,	0.000204
1.140000,	0.012600,	0.000204
1.180000,	0.012600,	0.000204
1.220000,	0.012600,	0.000204
1.260000,	0.012600,	0.000204
1.300000,	0.012600,	0.000204
1.340000,	0.012600,	0.000204
1.380000,	0.012600,	0.000204
1.420000,	0.012600,	0.000204
1.460000,	0.012600,	0.000204
1.500000,	0.012600,	0.000204
1.540000,	0.012600,	0.000204
1.580000,	0.012600,	0.000204
1.620000,	0.012600,	0.000204
1.660000,	0.012600,	0.000204
1.700000,	0.012600,	0.000204
1.740000,	0.012600,	0.000204
1.780000,	0.012600,	0.000204
1.820000,	0.012600,	0.000204
1.860000,	0.012600,	0.000204
1.900000,	0.012600,	0.000204
1.940000,	0.012600,	0.000204
1.980000,	0.012600,	0.000204
2.020000,	0.022537,	0.000203
2.060000,	0.042410,	0.000201
2.100000,	0.062285,	0.000199
2.140000,	0.082158,	0.000197
2.180000,	0.102033,	0.000195
2.220000,	0.121907,	0.000193
2.260000,	0.141781,	0.000191
2.300000,	0.161655,	0.000189
2.340000,	0.181529,	0.000187
2.380000,	0.201403,	0.000185
2.420000,	0.221276,	0.000183
2.460000,	0.241150,	0.000181
2.500000,	0.261024,	0.000178
2.540000,	0.280899,	0.000176
2.580000,	0.300773,	0.000174
2.620000,	0.320647,	0.000172
2.660000,	0.340521,	0.000170
2.700000,	0.360395,	0.000168
2.740000,	0.380269,	0.000166
2.780000,	0.400143,	0.000164
2.820000,	0.420017,	0.000162
2.860000,	0.439891,	0.000160
2.900000,	0.459765,	0.000158
2.940000,	0.479638,	0.000156
2.980000,	0.499513,	0.000154
3.020000,	0.519386,	0.000152
3.060000,	0.539261,	0.000150
3.100000,	0.559134,	0.000148
3.140000,	0.579009,	0.000146
3.180000,	0.598882,	0.000144
3.220000,	0.618757,	0.000142
3.260000,	0.638630,	0.000140
3.300000,	0.658505,	0.000138
3.340000,	0.678379,	0.000136
3.380000,	0.698253,	0.000134
3.420000,	0.718127,	0.000132
3.460000,	0.738001,	0.000130
3.500000,	0.757875,	0.000128
3.540000,	0.777749,	0.000125
3.580000,	0.797623,	0.000123
3.620000,	0.817497,	0.000121
3.660000,	0.837371,	0.000119
3.700000,	0.857245,	0.000117
3.740000,	0.877119,	0.000115
3.780000,	0.896993,	0.000113
3.820000,	0.916867,	0.000111
3.860000,	0.936741,	0.000109
3.900000,	0.956615,	0.000107
3.940000,	0.976489,	0.000105
3.980000,	0.996363,	0.000103
0.020000,	0.012600,	0.000204
0.060000,	0.012600,	0.000204
0.100000,	0.012600,	0.000204
0.140000,	0.012600,	0.000204
0.180000,	0.012600,	0.000204
0.220000,	0.012600,	0.000204
0.260000,	0.012600,	0.000204
0.300000,	0.012600,	0.000204
0.340000,	0.012600,	0.000204
0.380000,	0.012600,	0.000204
0.420000,	0.012600,	0.000204
0.460000,	0.012600,	0.000204
0.500000,	0.012600,	0.000204
0.540000,	0.012600,	0.000204
0.580000,	0.012600,	0.000204
0.620000,	0.012600,	0.000204
0.660000,	0.012600,	0.000204
0.700000,	0.012600,	0.000204
0.740000,	0.012600,	0.000204
0.780000,	0.012600,	0.000204
0.820000,	0.012600,	0.000204
0.860000,	0.012600,	0.000204
0.900000,	0.012600,	0.000204
0.940000,	0.012600,	0.000204
0.980000,	0.012600,	0.000204
1.020000,	0.012600,	0.000204
1.060000,	0.012600,	0.000204
1.100000,	0.012600,	0.000204
1.140000,	0.012600,	0.000204
1.180000,	0.012600,	0.000204
1.220000,	0.012600,	0.000204
1.260000,	0.012600,	0.000204
1.300000,	0.012600,	0.000204
1.340000,	0.012600,	0.000204
1.380000,	0.012600,	0.000204
1.420000,	0.012600,	0.000204
1.460000,	0.012600,	0.000204
1.500000,	0.012600,	0.000204
1.540000,	0.012600,	0.000204
1.580000,	0.012600,	0.000204
1.620000,	0.012600,	0.000204
1.660000,	0.012600,	0.000204
1.700000,	0.012600,	0.000204
1.740000,	0.012600,	0.000204
1.780000,	0.012600,	0.000204
1.820000,	0.012600,	0.000204
1.860000,	0.012600,	0.000204
1.900000,	0.012600,	0.000204
1.940000,	0.012600,	0.000204
1.980000,	0.012600,	0.000204
2.020000,	0.022537,	0.000203
2.060000,	0.042410,	0.000201
2.100000,	0.062285,	0.000199
2.140000,	0.082158,	0.000197
2.180000,	0.102033,	0.000195
2.220000,	0.121907,	0.000193
2.260000,	0.141781,	0.000191
2.300000,	0.161655,	0.000189
2.340000,	0.181529,	0.000187
2.380000,	0.201403,	0.000185
2.420000,	0.221276,	0.000183
2.460000,	0.241150,	0.000181
2.500000,	0.261024,	0.000178
2.540000,	0.280899,	0.000176
2.580000,	0.300773,	0.000174
2.620000,	0.320647,	0.000172
2.660000,	0.340521,	0.000170
2.700000,	0.360395,	0.000168
2.740000,	0.380269,	0.000166
2.780000,	0.400143,	0.000164
2.820000,	0.420017,	0.000162
2.860000,	0.439891,	0.000160
2.900000,	0.459765,	0.000158
2.940000,	0.479638,	0.000156
2.980000,	0.499513,	0.000154
3.020000,	0.519386,	0.000152
3.060000,	0.539261,	0.000150
3.100000,	0.559134,	0.000148
3.140000,	0.579009,	0.000146
3.180000,	0.598882,	0.000144
3.220000,	0.618757,	0.000142
3.260000,	0.638630,	0.000140
3.300000,	0.658505,	0.000138
3.340000,	0.678379,	0.000136
3.380000,	0.698253,	0.000134
3.420000,	0.718127,	0.000132
3.460000,	0.738001,	0.000130
3.500000,	0.757875,	0.000128
3.540000,	0.777749,	0.000125
3.580000,	0.797623,	0.000123
3.620000,	0.817497,	0.000121
3.660000,	0.837371,	0.000119
3.700000,	0.857245,	0.000117
3.740000,	0.877119,	0.000115
3.780000,	0.896993,	0.000113
3.820000,	0.916867,	0.000111
3.860000,	0.936741,	0.000109
3.900000,	0.956615,	0.000107
3.940000,	0.976489,	0.000105
3.980000,	0.996363,	0.000103
0.020000,	0.017724,	0.000206
0.060000,	0.017724,	0.000206
0.100000,	0.017724,	0.000206
0.140000,	0.017724,	0.000206
0.180000,	0.017724,	0.000206
0.220000,	0.017724,	0.000206
0.260000,	0.017724,	0.000206
0.300000,	0.017724,	0.000206
0.340000,	0.017724,	0.000206
0.380000,	0.017724,	0.000206
0.420000,	0.017724,	0.000206
0.460000,	0.017724,	0.000206
0.500000,	0.017724,	0.000206
0.540000,	0.017724,	0.000206
0.580000,	0.017724,	0.000206
0.620000,	0.017724,	0.000206
0.660000,	0.017724,	0.000206
0.700000,	0.017724,	0.000206
0.740000,	0.017724,	0.000206
0.780000,	0.017724,	0.000206
0.820000,	0.017724,	0.000206
0.860000,	0.017724,	0.000206
0.900000,	0.017724,	0.000206
0.940000,	0.017724,	0.000206
0.980000,	0.017724,	0.000206
1.020000,	0.017724,	0.000206
1.060000,	0.017724,	0.000206
1.100000,	0.017724,	0.000206
1.140000,	0.017724,	0.000206
1.180000,	0.017724,	0.000206
1.220000,	0.017724,	0.000206
1.260000,	0.017724,	0.000206
1.300000,	0.017724,	0.000206
1.340000,	0.017724,	0.000206
1.380000,	0.017724,	0.000206
1.420000,	0.017724,	0.000206
1.460000,	0.017724,	0.000206
1.500000,	0.017724,	0.000206
1.540000,	0.017724,	0.000206
1.580000,	0.017724,	0.000206
1.620000,	0.017724,	0.000206
1.660000,	0.017724,	0.000206
1.700000,	0.017724,	0.000206
1.740000,	0.017724,	0.000206
1.780000,	0.017724,	0.000206
1.820000,	0.017724,	0.000206
1.860000,	0.017724,	0.000206
1.900000,	0.017724,	0.000206
1.940000,	0.017724,	0.000206
1.980000,	0.017724,	0.000206
2.020000,	0.027636,	0.000205
2.060000,	0.047458,	0.000203
2.100000,	0.067281,	0.000201
2.140000,	0.087104,	0.000199
2.180000,	0.106927,	0.000197
2.220000,	0.126749,	0.000195
2.260000,	0.146572,	0.000193
2.300000,	0.166395,	0.000191
2.340000,	0.186218,	0.000188
2.380000,	0.206040,	0.000186
2.420000,	0.225863,	0.000184
2.460000,	0.245686,	0.000182
2.500000,	0.265508,	0.000180
2.540000,	0.285331,	0.000178
2.580000,	0.305154,	0.000176
2.620000,	0.324977,	0.000174
2.660000,	0.344799,	0.000172
2.700000,	0.364622,	0.000170
2.740000,	0.384445,	0.000168
2.780000,	0.404268,	0.000166
2.820000,	0.424091,	0.000164
2.860000,	0.443913,	0.000162
2.900000,	0.463736,	0.000160
2.940000,	0.483559,	0.000158
2.980000,	0.503382,	0.000156
3.020000,	0.523204,	0.000153
3.060000,	0.543027,	0.000151
3.100000,	0.562850,	0.000149
3.140000,	0.582673,	0.000147
3.180000,	0.602495,	0.000145
3.220000,	0.622318,	0.000143
3.260000,	0.642141,	0.000141
3.300000,	0.661964,	0.000139
3.340000,	0.681787,	0.000137
3.380000,	0.701609,	0.000135
3.420000,	0.721432,	0.000133
3.460000,	0.741255,	0.000131
3.500000,	0.761077,	0.000129
3.540000,	0.780900,	0.000127
3.580000,	0.800723,	0.000125
3.620000,	0.820546,	0.000123
3.660000,	0.840368,	0.000120
3.700000,	0.860191,	0.000118
3.740000,	0.880014,	0.000116
3.780000,	0.899837,	0.000114
3.820000,	0.919660,	0.000112
3.860000,	0.939482,	0.000110
3.900000,	0.959305,	0.000108
3.940000,	0.979128,	0.000106
3.980000,	0.998951,	0.000104
0.020000,	0.017724,	0.000206
0.060000,	0.017724,	0.000206
0.100000,	0.017724,	0.000206
0.140000,	0.017724,	0.000206
0.180000,	0.017724,	0.000206
0.220000,	0.017724,	0.000206
0.260000,	0.017724,	0.000206
0.300000,	0.017724,	0.000206
0.340000,	0.017724,	0.000206
0.380000,	0.017724,	0.000206
0.420000,	0.017724,	0.000206
0.460000,	0.017724,	0.000206
0.500000,	0.017724,	0.000206
0.540000,	0.017724,	0.000206
0.580000,	0.017724,	0.000206
0.620000,	0.017724,	0.000206
0.660000,	0.017724,	0.000206
0.700000,	0.017724,	0.000206
0.740000,	0.017724,	0.000206
0.780000,	0.017724,	0.000206
0.820000,	0.017724,	0.000206
0.860000,	0.017724,	0.000206
0.900000,	0.017724,	0.000206
0.940000,	0.017724,	0.000206
0.980000,	0.017724,	0.000206
1.020000,	0.017724,	0.000206
1.060000,	0.017724,	0.000206
1.100000,	0.017724,	0.000206
1.140000,	0.017724,	0.000206
1.180000,	0.017724,	0.000206
1.220000,	0.017724,	0.000206
1.260000,	0.017724,	0.000206
1.300000,	0.017724,	0.000206
1.340000,	0.017724,	0.000206
1.380000,	0.017724,	0.000206
1.420000,	0.017724,	0.000206
1.460000,	0.017724,	0.000206
1.500000,	0.017724,	0.000206
1.540000,	0.017724,	0.000206
1.580000,	0.017724,	0.000206
1.620000,	0.017724,	0.000206
1.660000,	0.017724,	0.000206
1.700000,	0.017724,	0.000206
1.740000,	0.017724,	0.000206
1.780000,	0.017724,	0.000206
1.820000,	0.017724,	0.000206
1.860000,	0.017724,	0.000206
1.900000,	0.017724,	0.000206
1.940000,	0.017724,	0.000206
1.980000,	0.017724,	0.000206
2.020000,	0.027636,	0.000205
2.060000,	0.047458,	0.000203
2.100000,	0.067281,	0.000201
2.140000,	0.087104,	0.000199
2.180000,	0.106927,	0.000197
2.220000,	0.126749,	0.000195
2.260000,	0.146572,	0.000193
2.300000,	0.166395,	0.000191
2.340000,	0.186218,	0.000188
2.380000,	0.206040,	0.000186
2.420000,	0.225863,	0.000184
2.460000,	0.245686,	0.000182
2.500000,	0.265508,	0.000180
2.540000,	0.285331,	0.000178
2.580000,	0.305154,	0.000176
2.620000,	0.324977,	0.000174
2.660000,	0.344799,	0.000172
2.700000,	0.364622,	0.000170
2.740000,	0.384445,	0.000168
2.780000,	0.404268,	0.000166
2.820000,	0.424091,	0.000164
2.860000,	0.443913,	0.000162
2.900000,	0.463736,	0.000160
2.940000,	0.483559,	0.000158
2.980000,	0.503382,	0.000156
3.020000,	0.523204,	0.000153
3.060000,	0.543027,	0.000151
3.100000,	0.562850,	0.000149
3.140000,	0.582673,	0.000147
3.180000,	0.602495,	0.000145
3.220000,	0.622318,	0.000143
3.260000,	0.642141,	0.000141
3.300000,	0.661964,	0.000139
3.340000,	0.681787,	0.000137
3.380000,	0.701609,	0.000135
3.420000,	0.721432,	0.000133
3.460000,	0.741255,	0.000131
3.500000,	0.761077,	0.000129
3.540000,	0.780900,	0.000127
3.580000,	0.800723,	0.000125
3.620000,	0.820546,	0.000123
3.660000,	0.840368,	0.000120
3.700000,	0.860191,	0.000118
3.740000,	0.880014,	0.000116
3.780000,	0.899837,	0.000114
3.820000,	0.919660,	0.000112
3.860000,	0.939482,	0.000110
3.900000,	0.959305,	0.000108
3.940000,	0.979128,	0.000106
3.980000,	0.998951,	0.000104
0.020000,	0.022899,	0.000208
0.060000,	0.022899,	0.000208
0.100000,	0.022899,	0.000208
0.140000,	0.022899,	0.000208
0.180000,	0.022899,	0.000208
0.220000,	0.022899,	0.000208
0.260000,	0.022899,	0.000208
0.300000,	0.022899,	0.000208
0.340000,	0.022899,	0.000208
0.380000,	0.022899,	0.000208
0.420000,	0.022899,	0.000208
0.460000,	0.022899,	0.000208
0.500000,	0.022899,	0.000208
0.540000,	0.022899,	0.000208
0.580000,	0.022899,	0.000208
0.620000,	0.022899,	0.000208
0.660000,	0.022899,	0.000208
0.700000,	0.022899,	0.000208
0.740000,	0.022899,	0.000208
0.780000,	0.022899,	0.000208
0.820000,	0.022899,	0.000208
0.860000,	0.022899,	0.000208
0.900000,	0.022899,	0.000208
0.940000,	0.022899,	0.000208
0.980000,	0.022899,	0.000208
1.020000,	0.022899,	0.000208
1.060000,	0.022899,	0.000208
1.100000,	0.022899,	0.000208
1.140000,	0.022899,	0.000208
1.180000,	0.022899,	0.000208
1.220000,	0.022899,	0.000208
1.260000,	0.022899,	0.000208
1.300000,	0.022899,	0.000208
1.340000,	0.022899,	0.000208
1.380000,	0.022899,	0.000208
1.420000,	0.022899,	0.000208
1.460000,	0.022899,	0.000208
1.500000,	0.022899,	0.000208
1.540000,	0.022899,	0.000208
1.580000,	0.022899,	0.000208
1.620000,	0.022899,	0.000208
1.660000,	0.022899,	0.000208
1.700000,	0.022899,	0.000208
1.740000,	0.022899,	0.000208
1.780000,	0.022899,	0.000208
1.820000,	0.022899,	0.000208
1.860000,	0.022899,	0.000208
1.900000,	0.022899,	0.000208
1.940000,	0.022899,	0.000208
1.980000,	0.022899,	0.000208
2.020000,	0.032784,	0.000207
2.060000,	0.052555,	0.000205
2.100000,	0.072326,	0.000203
2.140000,	0.092097,	0.000201
2.180000,	0.111868,	0.000199
2.220000,	0.131639,	0.000197
2.260000,	0.151410,	0.000194
2.300000,	0.171181,	0.000192
2.340000,	0.190952,	0.000190
2.380000,	0.210723,	0.000188
2.420000,	0.230494,	0.000186
2.460000,	0.250265,	0.000184
2.500000,	0.270036,	0.000182
2.540000,	0.289807,	0.000180
2.580000,	0.309578,	0.000178
2.620000,	0.329349,	0.000176
2.660000,	0.349120,	0.000174
2.700000,	0.368891,	0.000172
2.740000,	0.388662,	0.000169
2.780000,	0.408433,	0.000167
2.820000,	0.428204,	0.000165
2.860000,	0.447975,	0.000163
2.900000,	0.467746,	0.000161
2.940000,	0.487517,	0.000159
2.980000,	0.507288,	0.000157
3.020000,	0.527059,	0.000155
3.060000,	0.546830,	0.000153
3.100000,	0.566601,	0.000151
3.140000,	0.586372,	0.000149
3.180000,	0.606143,	0.000147
3.220000,	0.625914,	0.000145
3.260000,	0.645685,	0.000142
3.300000,	0.665456,	0.000140
3.340000,	0.685227,	0.000138
3.380000,	0.704998,	0.000136
3.420000,	0.724769,	0.000134
3.460000,	0.744540,	0.000132
3.500000,	0.764311,	0.000130
3.540000,	0.784082,	0.000128
3.580000,	0.803853,	0.000126
3.620000,	0.823624,	0.000124
3.660000,	0.843395,	0.000122
3.700000,	0.863166,	0.000120
3.740000,	0.882938,	0.000118
3.780000,	0.902709,	0.000115
3.820000,	0.922480,	0.000113
3.860000,	0.942250,	0.000111
3.900000,	0.962021,	0.000109
3.940000,	0.981792,	0.000107
3.980000,	1.001564,	0.000105
0.020000,	0.022899,	0.000208
0.060000,	0.022899,	0.000208
0.100000,	0.022899,	0.000208
0.140000,	0.022899,	0.000208
0.180000,	0.022899,	0.000208
0.220000,	0.022899,	0.000208
0.260000,	0.022899,	0.000208
0.300000,	0.022899,	0.000208
0.340000,	0.022899,	0.000208
0.380000,	0.022899,	0.000208
0.420000,	0.022899,	0.000208
0.460000,	0.022899,	0.000208
0.500000,	0.022899,	0.000208
0.540000,	0.022899,	0.000208
0.580000,	0.022899,	0.000208
0.620000,	0.022899,	0.000208
0.660000,	0.022899,	0.000208
0.700000,	0.022899,	0.000208
0.740000,	0.022899,	0.000208
0.780000,	0.022899,	0.000208
0.820000,	0.022899,	0.000208
0.860000,	0.022899,	0.000208
0.900000,	0.022899,	0.000208
0.940000,	0.022899,	0.000208
0.980000,	0.022899,	0.000208
1.020000,	0.022899,	0.000208
1.060000,	0.022899,	0.000208
1.100000,	0.022899,	0.000208
1.140000,	0.022899,	0.000208
1.180000,	0.022899,	0.000208
1.220000,	0.022899,	0.000208
1.260000,	0.022899,	0.000208
1.300000,	0.022899,	0.000208
1.340000,	0.022899,	0.000208
1.380000,	0.022899,	0.000208
1.420000,	0.022899,	0.000208
1.460000,	0.022899,	0.000208
1.500000,	0.022899,	0.000208
1.540000,	0.022899,	0.000208
1.580000,	0.022899,	0.000208
1.620000,	0.022899,	0.000208
1.660000,	0.022899,	0.000208
1.700000,	0.022899,	0.000208
1.740000,	0.022899,	0.000208
1.780000,	0.022899,	0.000208
1.820000,	0.022899,	0.000208
1.860000,	0.022899,	0.000208
1.900000,	0.022899,	0.000208
1.940000,	0.022899,	0.000208
1.980000,	0.022899,	0.000208
2.020000,	0.032784,	0.000207
2.060000,	0.052555,	0.000205
2.100000,	0.072326,	0.000203
2.140000,	0.092097,	0.000201
2.180000,	0.111868,	0.000199
2.220000,	0.131639,	0.000197
2.260000,	0.151410,	0.000194
2.300000,	0.171181,	0.000192
2.340000,	0.190952,	0.000190
2.380000,	0.210723,	0.000188
2.420000,	0.230494,	0.000186
2.460000,	0.250265,	0.000184
2.500000,	0.270036,	0.000182
2.540000,	0.289807,	0.000180
2.580000,	0.309578,	0.000178
2.620000,	0.329349,	0.000176
2.660000,	0.349120,	0.000174
2.700000,	0.368891,	0.000172
2.740000,	0.388662,	0.000169
2.780000,	0.408433,	0.000167
2.820000,	0.428204,	0.000165
2.860000,	0.447975,	0.000163
2.900000,	0.467746,	0.000161
2.940000,	0.487517,	0.000159
2.980000,	0.507288,	0.000157
3.020000,	0.527059,	0.000155
3.060000,	0.546830,	0.000153
3.100000,	0.566601,	0.000151
3.140000,	0.586372,	0.000149
3.180000,	0.606143,	0.000147
3.220000,	0.625914,	0.000145
3.260000,	0.645685,	0.000142
3.300000,	0.665456,	0.000140
3.340000,	0.685227,	0.000138
3.380000,	0.704998,	0.000136
3.420000,	0.724769,	0.000134
3.460000,	0.744540,	0.000132
3.500000,	0.764311,	0.000130
3.540000,	0.784082,	0.000128
3.580000,	0.803853,	0.000126
3.620000,	0.823624,	0.000124
3.660000,	0.843395,	0.000122
3.700000,	0.863166,	0.000120
3.740000,	0.882938,	0.000118
3.780000,	0.902709,	0.000115
3.820000,	0.922480,	0.000113
3.860000,	0.942250,	0.000111
3.900000,	0.962021,	0.000109
3.940000,	0.981792,	0.000107
3.980000,	1.001564,	0.000105
0.020000,	0.028122,	0.000210
0.060000,	0.028122,	0.000210
0.100000,	0.028122,	0.000210
0.140000,	0.028122,	0.000210
0.180000,	0.028122,	0.000210
0.220000,	0.028122,	0.000210
0.260000,	0.028122,	0.000210
0.300000,	0.028122,	0.000210
0.340000,	0.028122,	0.000210
0.380000,	0.028122,	0.000210
0.420000,	0.028122,	0.000210
0.460000,	0.028122,	0.000210
0.500000,	0.028122,	0.000210
0.540000,	0.028122,	0.000210
0.580000,	0.028122,	0.000210
0.620000,	0.028122,	0.000210
0.660000,	0.028122,	0.000210
0.700000,	0.028122,	0.000210
0.740000,	0.028122,	0.000210
0.780000,	0.028122,	0.000210
0.820000,	0.028122,	0.000210
0.860000,	0.028122,	0.000210
0.900000,	0.028122,	0.000210
0.940000,	0.028122,	0.000210
0.980000,	0.028122,	0.000210
1.020000,	0.028122,	0.000210
1.060000,	0.028122,	0.000210
1.100000,	0.028122,	0.000210
1.140000,	0.028122,	0.000210
1.180000,	0.028122,	0.000210
1.220000,	0.028122,	0.000210
1.260000,	0.028122,	0.000210
1.300000,	0.028122,	0.000210
1.340000,	0.028122,	0.000210
1.380000,	0.028122,	0.000210
1.420000,	0.028122,	0.000210
1.460000,	0.028122,	0.000210
1.500000,	0.028122,	0.000210
1.540000,	0.028122,	0.000210
1.580000,	0.028122,	0.000210
1.620000,	0.028122,	0.000210
1.660000,	0.028122,	0.000210
1.700000,	0.028122,	0.000210
1.740000,	0.028122,	0.000210
1.780000,	0.028122,	0.000210
1.820000,	0.028122,	0.000210
1.860000,	0.028122,	0.000210
1.900000,	0.028122,	0.000210
1.940000,	0.028122,	0.000210
1.980000,	0.028122,	0.000210
2.020000,	0.037982,	0.000209
2.060000,	0.057700,	0.000207
2.100000,	0.077419,	0.000205
2.140000,	0.097138,	0.000203
2.180000,	0.116857,	0.000200
2.220000,	0.136575,	0.000198
2.260000,	0.156294,	0.000196
2.300000,	0.176013,	0.000194
2.340000,	0.195732,	0.000192
2.380000,	0.215450,	0.000190
2.420000,	0.235169,	0.000188
2.460000,	0.254888,	0.000186
2.500000,	0.274607,	0.000184
2.540000,	0.294326,	0.000182
2.580000,	0.314044,	0.000180
2.620000,	0.333763,	0.000177
2.660000,	0.353482,	0.000175
2.700000,	0.373200,	0.000173
2.740000,	0.392919,	0.000171
2.780000,	0.412638,	0.000169
2.820000,	0.432357,	0.000167
2.860000,	0.452076,	0.000165
2.900000,	0.471795,	0.000163
2.940000,	0.491513,	0.000161
2.980000,	0.511232,	0.000159
3.020000,	0.530951,	0.000156
3.060000,	0.550670,	0.000154
3.100000,	0.570388,	0.000152
3.140000,	0.590107,	0.000150
3.180000,	0.609826,	0.000148
3.220000,	0.629544,	0.000146
3.260000,	0.649263,	0.000144
3.300000,	0.668982,	0.000142
3.340000,	0.688701,	0.000140
3.380000,	0.708420,	0.000138
3.420000,	0.728139,	0.000135
3.460000,	0.747857,	0.000133
3.500000,	0.767576,	0.000131
3.540000,	0.787295,	0.000129
3.580000,	0.807014,	0.000127
3.620000,	0.826733,	0.000125
3.660000,	0.846452,	0.000123
3.700000,	0.866170,	0.000121
3.740000,	0.885889,	0.000119
3.780000,	0.905608,	0.000116
3.820000,	0.925326,	0.000114
3.860000,	0.945045,	0.000112
3.900000,	0.964764,	0.000110
3.940000,	0.984483,	0.000108
3.980000,	1.004202,	0.000106
0.020000,	0.028122,	0.000210
0.060000,	0.028122,	0.000210
0.100000,	0.028122,	0.000210
0.140000,	0.028122,	0.000210
0.180000,	0.028122,	0.000210
0.220000,	0.028122,	0.000210
0.260000,	0.028122,	0.000210
0.300000,	0.028122,	0.000210
0.340000,	0.028122,	0.000210
0.380000,	0.028122,	0.000210
0.420000,	0.028122,	0.000210
0.460000,	0.028122,	0.000210
0.500000,	0.028122,	0.000210
0.540000,	0.028122,	0.000210
0.580000,	0.028122,	0.000210
0.620000,	0.028122,	0.000210
0.660000,	0.028122,	0.000210
0.700000,	0.028122,	0.000210
0.740000,	0.028122,	0.000210
0.780000,	0.028122,	0.000210
0.820000,	0.028122,	0.000210
0.860000,	0.028122,	0.000210
0.900000,	0.028122,	0.000210
0.940000,	0.028122,	0.000210
0.980000,	0.028122,	0.000210
1.020000,	0.028122,	0.000210
1.060000,	0.028122,	0.000210
1.100000,	0.028122,	0.000210
1.140000,	0.028122,	0.000210
1.180000,	0.028122,	0.000210
1.220000,	0.028122,	0.000210