TITLE = "MeshVolumeStats"
VARIABLES = "X", "Y", "VOL"
ZONE I=50, J=50, DATAPACKING=POINT
0.010000,	0.000015,	0.000001
0.030000,	0.000015,	0.000001
0.050000,	0.000015,	0.000001
0.070000,	0.000015,	0.000001
0.090000,	0.000015,	0.000001
0.110000,	0.000015,	0.000001
0.130000,	0.000015,	0.000001
0.150000,	0.000015,	0.000001
0.170000,	0.000015,	0.000001
0.190000,	0.000015,	0.000001
0.210000,	0.000015,	0.000001
0.230000,	0.000015,	0.000001
0.250000,	0.000015,	0.000001
0.270000,	0.000015,	0.000001
0.290000,	0.000015,	0.000001
0.310000,	0.000015,	0.000001
0.330000,	0.000015,	0.000001
0.350000,	0.000015,	0.000001
0.370000,	0.000015,	0.000001
0.390000,	0.000015,	0.000001
0.410000,	0.000015,	0.000001
0.430000,	0.000015,	0.000001
0.450000,	0.000015,	0.000001
0.470000,	0.000015,	0.000001
0.490000,	0.000015,	0.000001
0.510000,	0.000015,	0.000001
0.530000,	0.000015,	0.000001
0.550000,	0.000015,	0.000001
0.570000,	0.000015,	0.000001
0.590000,	0.000015,	0.000001
0.610000,	0.000015,	0.000001
0.630000,	0.000015,	0.000001
0.650000,	0.000015,	0.000001
0.670000,	0.000015,	0.000001
0.690000,	0.000015,	0.000001
0.710000,	0.000015,	0.000001
0.730000,	0.000015,	0.000001
0.750000,	0.000015,	0.000001
0.770000,	0.000015,	0.000001
0.790000,	0.000015,	0.000001
0.810000,	0.000015,	0.000001
0.830000,	0.000015,	0.000001
0.850000,	0.000015,	0.000001
0.870000,	0.000015,	0.000001
0.890000,	0.000015,	0.000001
0.910000,	0.000015,	0.000001
0.930000,	0.000015,	0.000001
0.950000,	0.000015,	0.000001
0.970000,	0.000015,	0.000001
0.990000,	0.000015,	0.000001
0.010000,	0.000047,	0.000001
0.030000,	0.000047,	0.000001
0.050000,	0.000047,	0.000001
0.070000,	0.000047,	0.000001
0.090000,	0.000047,	0.000001
0.110000,	0.000047,	0.000001
0.130000,	0.000047,	0.000001
0.150000,	0.000047,	0.000001
0.170000,	0.000047,	0.000001
0.190000,	0.000047,	0.000001
0.210000,	0.000047,	0.000001
0.230000,	0.000047,	0.000001
0.250000,	0.000047,	0.000001
0.270000,	0.000047,	0.000001
0.290000,	0.000047,	0.000001
0.310000,	0.000047,	0.000001
0.330000,	0.000047,	0.000001
0.350000,	0.000047,	0.000001
0.370000,	0.000047,	0.000001
0.390000,	0.000047,	0.000001
0.410000,	0.000047,	0.000001
0.430000,	0.000047,	0.000001
0.450000,	0.000047,	0.000001
0.470000,	0.000047,	0.000001
0.490000,	0.000047,	0.000001
0.510000,	0.000047,	0.000001
0.530000,	0.000047,	0.000001
0.550000,	0.000047,	0.000001
0.570000,	0.000047,	0.000001
0.590000,	0.000047,	0.000001
0.610000,	0.000047,	0.000001
0.630000,	0.000047,	0.000001
0.650000,	0.000047,	0.000001
0.670000,	0.000047,	0.000001
0.690000,	0.000047,	0.000001
0.710000,	0.000047,	0.000001
0.730000,	0.000047,	0.000001
0.750000,	0.000047,	0.000001
0.770000,	0.000047,	0.000001
0.790000,	0.000047,	0.000001
0.810000,	0.000047,	0.000001
0.830000,	0.000047,	0.000001
0.850000,	0.000047,	0.000001
0.870000,	0.000047,	0.000001
0.890000,	0.000047,	0.000001
0.910000,	0.000047,	0.000001
0.930000,	0.000047,	0.000001
0.950000,	0.000047,	0.000001
0.970000,	0.000047,	0.000001
0.990000,	0.000047,	0.000001
0.010000,	0.000086,	0.000001
0.030000,	0.000086,	0.000001
0.050000,	0.000086,	0.000001
0.070000,	0.000086,	0.000001
0.090000,	0.000086,	0.000001
0.110000,	0.000086,	0.000001
0.130000,	0.000086,	0.000001
0.150000,	0.000086,	0.000001
0.170000,	0.000086,	0.000001
0.190000,	0.000086,	0.000001
0.210000,	0.000086,	0.000001
0.230000,	0.000086,	0.000001
0.250000,	0.000086,	0.000001
0.270000,	0.000086,	0.000001
0.290000,	0.000086,	0.000001
0.310000,	0.000086,	0.000001
0.330000,	0.000086,	0.000001
0.350000,	0.000086,	0.000001
0.370000,	0.000086,	0.000001
0.390000,	0.000086,	0.000001
0.410000,	0.000086,	0.000001
0.430000,	0.000086,	0.000001
0.450000,	0.000086,	0.000001
0.470000,	0.000086,	0.000001
0.490000,	0.000086,	0.000001
0.510000,	0.000086,	0.000001
0.530000,	0.000086,	0.000001
0.550000,	0.000086,	0.000001
0.570000,	0.000086,	0.000001
0.590000,	0.000086,	0.000001
0.610000,	0.000086,	0.000001
0.630000,	0.000086,	0.000001
0.650000,	0.000086,	0.000001
0.670000,	0.000086,	0.000001
0.690000,	0.000086,	0.000001
0.710000,	0.000086,	0.000001
0.730000,	0.000086,	0.000001
0.750000,	0.000086,	0.000001
0.770000,	0.000086,	0.000001
0.790000,	0.000086,	0.000001
0.810000,	0.000086,	0.000001
0.830000,	0.000086,	0.000001
0.850000,	0.000086,	0.000001
0.870000,	0.000086,	0.000001
0.890000,	0.000086,	0.000001
0.910000,	0.000086,	0.000001
0.930000,	0.000086,	0.000001
0.950000,	0.000086,	0.000001
0.970000,	0.000086,	0.000001
0.990000,	0.000086,	0.000001
0.010000,	0.000130,	0.000001
0.030000,	0.000130,	0.000001
0.050000,	0.000130,	0.000001
0.070000,	0.000130,	0.000001
0.090000,	0.000130,	0.000001
0.110000,	0.000130,	0.000001
0.130000,	0.000130,	0.000001
0.150000,	0.000130,	0.000001
0.170000,	0.000130,	0.000001
0.190000,	0.000130,	0.000001
0.210000,	0.000130,	0.000001
0.230000,	0.000130,	0.000001
0.250000,	0.000130,	0.000001
0.270000,	0.000130,	0.000001
0.290000,	0.000130,	0.000001
0.310000,	0.000130,	0.000001
0.330000,	0.000130,	0.000001
0.350000,	0.000130,	0.000001
0.370000,	0.000130,	0.000001
0.390000,	0.000130,	0.000001
0.410000,	0.000130,	0.000001
0.430000,	0.000130,	0.000001
0.450000,	0.000130,	0.000001
0.470000,	0.000130,	0.000001
0.490000,	0.000130,	0.000001
0.510000,	0.000130,	0.000001
0.530000,	0.000130,	0.000001
0.550000,	0.000130,	0.000001
0.570000,	0.000130,	0.000001
0.590000,	0.000130,	0.000001
0.610000,	0.000130,	0.000001
0.630000,	0.000130,	0.000001
0.650000,	0.000130,	0.000001
0.670000,	0.000130,	0.000001
0.690000,	0.000130,	0.000001
0.710000,	0.000130,	0.000001
0.730000,	0.000130,	0.000001
0.750000,	0.000130,	0.000001
0.770000,	0.000130,	0.000001
0.790000,	0.000130,	0.000001
0.810000,	0.000130,	0.000001
0.830000,	0.000130,	0.000001
0.850000,	0.000130,	0.000001
0.870000,	0.000130,	0.000001
0.890000,	0.000130,	0.000001
0.910000,	0.000130,	0.000001
0.930000,	0.000130,	0.000001
0.950000,	0.000130,	0.000001
0.970000,	0.000130,	0.000001
0.990000,	0.000130,	0.000001
0.010000,	0.000182,	0.000001
0.030000,	0.000182,	0.000001
0.050000,	0.000182,	0.000001
0.070000,	0.000182,	0.000001
0.090000,	0.000182,	0.000001
0.110000,	0.000182,	0.000001
0.130000,	0.000182,	0.000001
0.150000,	0.000182,	0.000001
0.170000,	0.000182,	0.000001
0.190000,	0.000182,	0.000001
0.210000,	0.000182,	0.000001
0.230000,	0.000182,	0.000001
0.250000,	0.000182,	0.000001
0.270000,	0.000182,	0.000001
0.290000,	0.000182,	0.000001
0.310000,	0.000182,	0.000001
0.330000,	0.000182,	0.000001
0.350000,	0.000182,	0.000001
0.370000,	0.000182,	0.000001
0.390000,	0.000182,	0.000001
0.410000,	0.000182,	0.000001
0.430000,	0.000182,	0.000001
0.450000,	0.000182,	0.000001
0.470000,	0.000182,	0.000001
0.490000,	0.000182,	0.000001
0.510000,	0.000182,	0.000001
0.530000,	0.000182,	0.000001
0.550000,	0.000182,	0.000001
0.570000,	0.000182,	0.000001
0.590000,	0.000182,	0.000001
0.610000,	0.000182,	0.000001
0.630000,	0.000182,	0.000001
0.650000,	0.000182,	0.000001
0.670000,	0.000182,	0.000001
0.690000,	0.000182,	0.000001
0.710000,	0.000182,	0.000001
0.730000,	0.000182,	0.000001
0.750000,	0.000182,	0.000001
0.770000,	0.000182,	0.000001
0.790000,	0.000182,	0.000001
0.810000,	0.000182,	0.000001
0.830000,	0.000182,	0.000001
0.850000,	0.000182,	0.000001
0.870000,	0.000182,	0.000001
0.890000,	0.000182,	0.000001
0.910000,	0.000182,	0.000001
0.930000,	0.000182,	0.000001
0.950000,	0.000182,	0.000001
0.970000,	0.000182,	0.000001
0.990000,	0.000182,	0.000001
0.010000,	0.000244,	0.000001
0.030000,	0.000244,	0.000001
0.050000,	0.000244,	0.000001
0.070000,	0.000244,	0.000001
0.090000,	0.000244,	0.000001
0.110000,	0.000244,	0.000001
0.130000,	0.000244,	0.000001
0.150000,	0.000244,	0.000001
0.170000,	0.000244,	0.000001
0.190000,	0.000244,	0.000001
0.210000,	0.000244,	0.000001
0.230000,	0.000244,	0.000001
0.250000,	0.000244,	0.000001
0.270000,	0.000244,	0.000001
0.290000,	0.000244,	0.000001
0.310000,	0.000244,	0.000001
0.330000,	0.000244,	0.000001
0.350000,	0.000244,	0.000001
0.370000,	0.000244,	0.000001
0.390000,	0.000244,	0.000001
0.410000,	0.000244,	0.000001
0.430000,	0.000244,	0.000001
0.450000,	0.000244,	0.000001
0.470000,	0.000244,	0.000001
0.490000,	0.000244,	0.000001
0.510000,	0.000244,	0.000001
0.530000,	0.000244,	0.000001
0.550000,	0.000244,	0.000001
0.570000,	0.000244,	0.000001
0.590000,	0.000244,	0.000001
0.610000,	0.000244,	0.000001
0.630000,	0.000244,	0.000001
0.650000,	0.000244,	0.000001
0.670000,	0.000244,	0.000001
0.690000,	0.000244,	0.000001
0.710000,	0.000244,	0.000001
0.730000,	0.000244,	0.000001
0.750000,	0.000244,	0.000001
0.770000,	0.000244,	0.000001
0.790000,	0.000244,	0.000001
0.810000,	0.000244,	0.000001
0.830000,	0.000244,	0.000001
0.850000,	0.000244,	0.000001
0.870000,	0.000244,	0.000001
0.890000,	0.000244,	0.000001
0.910000,	0.000244,	0.000001
0.930000,	0.000244,	0.000001
0.950000,	0.000244,	0.000001
0.970000,	0.000244,	0.000001
0.990000,	0.000244,	0.000001
0.010000,	0.000316,	0.000002
0.030000,	0.000316,	0.000002
0.050000,	0.000316,	0.000002
0.070000,	0.000316,	0.000002
0.090000,	0.000316,	0.000002
0.110000,	0.000316,	0.000002
0.130000,	0.000316,	0.000002
0.150000,	0.000316,	0.000002
0.170000,	0.000316,	0.000002
0.190000,	0.000316,	0.000002
0.210000,	0.000316,	0.000002
0.230000,	0.000316,	0.000002
0.250000,	0.000316,	0.000002
0.270000,	0.000316,	0.000002
0.290000,	0.000316,	0.000002
0.310000,	0.000316,	0.000002
0.330000,	0.000316,	0.000002
0.350000,	0.000316,	0.000002
0.370000,	0.000316,	0.000002
0.390000,	0.000316,	0.000002
0.410000,	0.000316,	0.000002
0.430000,	0.000316,	0.000002
0.450000,	0.000316,	0.000002
0.470000,	0.000316,	0.000002
0.490000,	0.000316,	0.000002
0.510000,	0.000316,	0.000002
0.530000,	0.000316,	0.000002
0.550000,	0.000316,	0.000002
0.570000,	0.000316,	0.000002
0.590000,	0.000316,	0.000002
0.610000,	0.000316,	0.000002
0.630000,	0.000316,	0.000002
0.650000,	0.000316,	0.000002
0.670000,	0.000316,	0.000002
0.690000,	0.000316,	0.000002
0.710000,	0.000316,	0.000002
0.730000,	0.000316,	0.000002
0.750000,	0.000316,	0.000002
0.770000,	0.000316,	0.000002
0.790000,	0.000316,	0.000002
0.810000,	0.000316,	0.000002
0.830000,	0.000316,	0.000002
0.850000,	0.000316,	0.000002
0.870000,	0.000316,	0.000002
0.890000,	0.000316,	0.000002
0.910000,	0.000316,	0.000002
0.930000,	0.000316,	0.000002
0.950000,	0.000316,	0.000002
0.970000,	0.000316,	0.000002
0.990000,	0.000316,	0.000002
0.010000,	0.000400,	0.000002
0.030000,	0.000400,	0.000002
0.050000,	0.000400,	0.000002
0.070000,	0.000400,	0.000002
0.090000,	0.000400,	0.000002
0.110000,	0.000400,	0.000002
0.130000,	0.000400,	0.000002
0.150000,	0.000400,	0.000002
0.170000,	0.000400,	0.000002
0.190000,	0.000400,	0.000002
0.210000,	0.000400,	0.000002
0.230000,	0.000400,	0.000002
0.250000,	0.000400,	0.000002
0.270000,	0.000400,	0.000002
0.290000,	0.000400,	0.000002
0.310000,	0.000400,	0.000002
0.330000,	0.000400,	0.000002
0.350000,	0.000400,	0.000002
0.370000,	0.000400,	0.000002
0.390000,	0.000400,	0.000002
0.410000,	0.000400,	0.000002
0.430000,	0.000400,	0.000002
0.450000,	0.000400,	0.000002
0.470000,	0.000400,	0.000002
0.490000,	0.000400,	0.000002
0.510000,	0.000400,	0.000002
0.530000,	0.000400,	0.000002
0.550000,	0.000400,	0.000002
0.570000,	0.000400,	0.000002
0.590000,	0.000400,	0.000002
0.610000,	0.000400,	0.000002
0.630000,	0.000400,	0.000002
0.650000,	0.000400,	0.000002
0.670000,	0.000400,	0.000002
0.690000,	0.000400,	0.000002
0.710000,	0.000400,	0.000002
0.730000,	0.000400,	0.000002
0.750000,	0.000400,	0.000002
0.770000,	0.000400,	0.000002
0.790000,	0.000400,	0.000002
0.810000,	0.000400,	0.000002
0.830000,	0.000400,	0.000002
0.850000,	0.000400,	0.000002
0.870000,	0.000400,	0.000002
0.890000,	0.000400,	0.000002
0.910000,	0.000400,	0.000002
0.930000,	0.000400,	0.000002
0.950000,	0.000400,	0.000002
0.970000,	0.000400,	0.000002
0.990000,	0.000400,	0.000002
0.010000,	0.000499,	0.000002
0.030000,	0.000499,	0.000002
0.050000,	0.000499,	0.000002
0.070000,	0.000499,	0.000002
0.090000,	0.000499,	0.000002
0.110000,	0.000499,	0.000002
0.130000,	0.000499,	0.000002
0.150000,	0.000499,	0.000002
0.170000,	0.000499,	0.000002
0.190000,	0.000499,	0.000002
0.210000,	0.000499,	0.000002
0.230000,	0.000499,	0.000002
0.250000,	0.000499,	0.000002
0.270000,	0.000499,	0.000002
0.290000,	0.000499,	0.000002
0.310000,	0.000499,	0.000002
0.330000,	0.000499,	0.000002
0.350000,	0.000499,	0.000002
0.370000,	0.000499,	0.000002
0.390000,	0.000499,	0.000002
0.410000,	0.000499,	0.000002
0.430000,	0.000499,	0.000002
0.450000,	0.000499,	0.000002
0.470000,	0.000499,	0.000002
0.490000,	0.000499,	0.000002
0.510000,	0.000499,	0.000002
0.530000,	0.000499,	0.000002
0.550000,	0.000499,	0.000002
0.570000,	0.000499,	0.000002
0.590000,	0.000499,	0.000002
0.610000,	0.000499,	0.000002
0.630000,	0.000499,	0.000002
0.650000,	0.000499,	0.000002
0.670000,	0.000499,	0.000002
0.690000,	0.000499,	0.000002
0.710000,	0.000499,	0.000002
0.730000,	0.000499,	0.000002
0.750000,	0.000499,	0.000002
0.770000,	0.000499,	0.000002
0.790000,	0.000499,	0.000002
0.810000,	0.000499,	0.000002
0.830000,	0.000499,	0.000002
0.850000,	0.000499,	0.000002
0.870000,	0.000499,	0.000002
0.890000,	0.000499,	0.000002
0.910000,	0.000499,	0.000002
0.930000,	0.000499,	0.000002
0.950000,	0.000499,	0.000002
0.970000,	0.000499,	0.000002
0.990000,	0.000499,	0.000002
0.010000,	0.000615,	0.000003
0.030000,	0.000615,	0.000003
0.050000,	0.000615,	0.000003
0.070000,	0.000615,	0.000003
0.090000,	0.000615,	0.000003
0.110000,	0.000615,	0.000003
0.130000,	0.000615,	0.000003
0.150000,	0.000615,	0.000003
0.170000,	0.000615,	0.000003
0.190000,	0.000615,	0.000003
0.210000,	0.000615,	0.000003
0.230000,	0.000615,	0.000003
0.250000,	0.000615,	0.000003
0.270000,	0.000615,	0.000003
0.290000,	0.000615,	0.000003
0.310000,	0.000615,	0.000003
0.330000,	0.000615,	0.000003
0.350000,	0.000615,	0.000003
0.370000,	0.000615,	0.000003
0.390000,	0.000615,	0.000003
0.410000,	0.000615,	0.000003
0.430000,	0.000615,	0.000003
0.450000,	0.000615,	0.000003
0.470000,	0.000615,	0.000003
0.490000,	0.000615,	0.000003
0.510000,	0.000615,	0.000003
0.530000,	0.000615,	0.000003
0.550000,	0.000615,	0.000003
0.570000,	0.000615,	0.000003
0.590000,	0.000615,	0.000003
0.610000,	0.000615,	0.000003
0.630000,	0.000615,	0.000003
0.650000,	0.000615,	0.000003
0.670000,	0.000615,	0.000003
0.690000,	0.000615,	0.000003
0.710000,	0.000615,	0.000003
0.730000,	0.000615,	0.000003
0.750000,	0.000615,	0.000003
0.770000,	0.000615,	0.000003
0.790000,	0.000615,	0.000003
0.810000,	0.000615,	0.000003
0.830000,	0.000615,	0.000003
0.850000,	0.000615,	0.000003
0.870000,	0.000615,	0.000003
0.890000,	0.000615,	0.000003
0.910000,	0.000615,	0.000003
0.930000,	0.000615,	0.000003
0.950000,	0.000615,	0.000003
0.970000,	0.000615,	0.000003
0.990000,	0.000615,	0.000003
0.010000,	0.000750,	0.000003
0.030000,	0.000750,	0.000003
0.050000,	0.000750,	0.000003
0.070000,	0.000750,	0.000003
0.090000,	0.000750,	0.000003
0.110000,	0.000750,	0.000003
0.130000,	0.000750,	0.000003
0.150000,	0.000750,	0.000003
0.170000,	0.000750,	0.000003
0.190000,	0.000750,	0.000003
0.210000,	0.000750,	0.000003
0.230000,	0.000750,	0.000003
0.250000,	0.000750,	0.000003
0.270000,	0.000750,	0.000003
0.290000,	0.000750,	0.000003
0.310000,	0.000750,	0.000003
0.330000,	0.000750,	0.000003
0.350000,	0.000750,	0.000003
0.370000,	0.000750,	0.000003
0.390000,	0.000750,	0.000003
0.410000,	0.000750,	0.000003
0.430000,	0.000750,	0.000003
0.450000,	0.000750,	0.000003
0.470000,	0.000750,	0.000003
0.490000,	0.000750,	0.000003
0.510000,	0.000750,	0.000003
0.530000,	0.000750,	0.000003
0.550000,	0.000750,	0.000003
0.570000,	0.000750,	0.000003
0.590000,	0.000750,	0.000003
0.610000,	0.000750,	0.000003
0.630000,	0.000750,	0.000003
0.650000,	0.000750,	0.000003
0.670000,	0.000750,	0.000003
0.690000,	0.000750,	0.000003
0.710000,	0.000750,	0.000003
0.730000,	0.000750,	0.000003
0.750000,	0.000750,	0.000003
0.770000,	0.000750,	0.000003
0.790000,	0.000750,	0.000003
0.810000,	0.000750,	0.000003
0.830000,	0.000750,	0.000003
0.850000,	0.000750,	0.000003
0.870000,	0.000750,	0.000003
0.890000,	0.000750,	0.000003
0.910000,	0.000750,	0.000003
0.930000,	0.000750,	0.000003
0.950000,	0.000750,	0.000003
0.970000,	0.000750,	0.000003
0.990000,	0.000750,	0.000003
0.010000,	0.000910,	0.000003
0.030000,	0.000910,	0.000003
0.050000,	0.000910,	0.000003
0.070000,	0.000910,	0.000003
0.090000,	0.000910,	0.000003
0.110000,	0.000910,	0.000003
0.130000,	0.000910,	0.000003
0.150000,	0.000910,	0.000003
0.170000,	0.000910,	0.000003
0.190000,	0.000910,	0.000003
0.210000,	0.000910,	0.000003
0.230000,	0.000910,	0.000003
0.250000,	0.000910,	0.000003
0.270000,	0.000910,	0.000003
0.290000,	0.000910,	0.000003
0.310000,	0.000910,	0.000003
0.330000,	0.000910,	0.000003
0.350000,	0.000910,	0.000003
0.370000,	0.000910,	0.000003
0.390000,	0.000910,	0.000003
0.410000,	0.000910,	0.000003
0.430000,	0.000910,	0.000003
0.450000,	0.000910,	0.000003
0.470000,	0.000910,	0.000003
0.490000,	0.000910,	0.000003
0.510000,	0.000910,	0.000003
0.530000,	0.000910,	0.000003
0.550000,	0.000910,	0.000003
0.570000,	0.000910,	0.000003
0.590000,	0.000910,	0.000003
0.610000,	0.000910,	0.000003
0.630000,	0.000910,	0.000003
0.650000,	0.000910,	0.000003
0.670000,	0.000910,	0.000003
0.690000,	0.000910,	0.000003
0.710000,	0.000910,	0.000003
0.730000,	0.000910,	0.000003
0.750000,	0.000910,	0.000003
0.770000,	0.000910,	0.000003
0.790000,	0.000910,	0.000003
0.810000,	0.000910,	0.000003
0.830000,	0.000910,	0.000003
0.850000,	0.000910,	0.000003
0.870000,	0.000910,	0.000003
0.890000,	0.000910,	0.000003
0.910000,	0.000910,	0.000003
0.930000,	0.000910,	0.000003
0.950000,	0.000910,	0.000003
0.970000,	0.000910,	0.000003
0.990000,	0.000910,	0.000003
0.010000,	0.001096,	0.000004
0.030000,	0.001096,	0.000004
0.050000,	0.001096,	0.000004
0.070000,	0.001096,	0.000004
0.090000,	0.001096,	0.000004
0.110000,	0.001096,	0.000004
0.130000,	0.001096,	0.000004
0.150000,	0.001096,	0.000004
0.170000,	0.001096,	0.000004
0.190000,	0.001096,	0.000004
0.210000,	0.001096,	0.000004
0.230000,	0.001096,	0.000004
0.250000,	0.001096,	0.000004
0.270000,	0.001096,	0.000004
0.290000,	0.001096,	0.000004
0.310000,	0.001096,	0.000004
0.330000,	0.001096,	0.000004
0.350000,	0.001096,	0.000004
0.370000,	0.001096,	0.000004
0.390000,	0.001096,	0.000004
0.410000,	0.001096,	0.000004
0.430000,	0.001096,	0.000004
0.450000,	0.001096,	0.000004
0.470000,	0.001096,	0.000004
0.490000,	0.001096,	0.000004
0.510000,	0.001096,	0.000004
0.530000,	0.001096,	0.000004
0.550000,	0.001096,	0.000004
0.570000,	0.001096,	0.000004
0.590000,	0.001096,	0.000004
0.610000,	0.001096,	0.000004
0.630000,	0.001096,	0.000004
0.650000,	0.001096,	0.000004
0.670000,	0.001096,	0.000004
0.690000,	0.001096,	0.000004
0.710000,	0.001096,	0.000004
0.730000,	0.001096,	0.000004
0.750000,	0.001096,	0.000004
0.770000,	0.001096,	0.000004
0.790000,	0.001096,	0.000004
0.810000,	0.001096,	0.000004
0.830000,	0.001096,	0.000004
0.850000,	0.001096,	0.000004
0.870000,	0.001096,	0.000004
0.890000,	0.001096,	0.000004
0.910000,	0.001096,	0.000004
0.930000,	0.001096,	0.000004
0.950000,	0.001096,	0.000004
0.970000,	0.001096,	0.000004
0.990000,	0.001096,	0.000004
0.010000,	0.001315,	0.000005
0.030000,	0.001315,	0.000005
0.050000,	0.001315,	0.000005
0.070000,	0.001315,	0.000005
0.090000,	0.001315,	0.000005
0.110000,	0.001315,	0.000005
0.130000,	0.001315,	0.000005
0.150000,	0.001315,	0.000005
0.170000,	0.001315,	0.000005
0.190000,	0.001315,	0.000005
0.210000,	0.001315,	0.000005
0.230000,	0.001315,	0.000005
0.250000,	0.001315,	0.000005
0.270000,	0.001315,	0.000005
0.290000,	0.001315,	0.000005
0.310000,	0.001315,	0.000005
0.330000,	0.001315,	0.000005
0.350000,	0.001315,	0.000005
0.370000,	0.001315,	0.000005
0.390000,	0.001315,	0.000005
0.410000,	0.001315,	0.000005
0.430000,	0.001315,	0.000005
0.450000,	0.001315,	0.000005
0.470000,	0.001315,	0.000005
0.490000,	0.001315,	0.000005
0.510000,	0.001315,	0.000005
0.530000,	0.001315,	0.000005
0.550000,	0.001315,	0.000005
0.570000,	0.001315,	0.000005
0.590000,	0.001315,	0.000005
0.610000,	0.001315,	0.000005
0.630000,	0.001315,	0.000005
0.650000,	0.001315,	0.000005
0.670000,	0.001315,	0.000005
0.690000,	0.001315,	0.000005
0.710000,	0.001315,	0.000005
0.730000,	0.001315,	0.000005
0.750000,	0.001315,	0.000005
0.770000,	0.001315,	0.000005
0.790000,	0.001315,	0.000005
0.810000,	0.001315,	0.000005
0.830000,	0.001315,	0.000005
0.850000,	0.001315,	0.000005
0.870000,	0.001315,	0.000005
0.890000,	0.001315,	0.000005
0.910000,	0.001315,	0.000005
0.930000,	0.001315,	0.000005
0.950000,	0.001315,	0.000005
0.970000,	0.001315,	0.000005
0.990000,	0.001315,	0.000005
0.010000,	0.001571,	0.000006
0.030000,	0.001571,	0.000006
0.050000,	0.001571,	0.000006
0.070000,	0.001571,	0.000006
0.090000,	0.001571,	0.000006
0.110000,	0.001571,	0.000006
0.130000,	0.001571,	0.000006
0.150000,	0.001571,	0.000006
0.170000,	0.001571,	0.000006
0.190000,	0.001571,	0.000006
0.210000,	0.001571,	0.000006
0.230000,	0.001571,	0.000006
0.250000,	0.001571,	0.000006
0.270000,	0.001571,	0.000006
0.290000,	0.001571,	0.000006
0.310000,	0.001571,	0.000006
0.330000,	0.001571,	0.000006
0.350000,	0.001571,	0.000006
0.370000,	0.001571,	0.000006
0.390000,	0.001571,	0.000006
0.410000,	0.001571,	0.000006
0.430000,	0.001571,	0.000006
0.450000,	0.001571,	0.000006
0.470000,	0.001571,	0.000006
0.490000,	0.001571,	0.000006
0.510000,	0.001571,	0.000006
0.530000,	0.001571,	0.000006
0.550000,	0.001571,	0.000006
0.570000,	0.001571,	0.000006
0.590000,	0.001571,	0.000006
0.610000,	0.001571,	0.000006
0.630000,	0.001571,	0.000006
0.650000,	0.001571,	0.000006
0.670000,	0.001571,	0.000006
0.690000,	0.001571,	0.000006
0.710000,	0.001571,	0.000006
0.730000,	0.001571,	0.000006
0.750000,	0.001571,	0.000006
0.770000,	0.001571,	0.000006
0.790000,	0.001571,	0.000006
0.810000,	0.001571,	0.000006
0.830000,	0.001571,	0.000006
0.850000,	0.001571,	0.000006
0.870000,	0.001571,	0.000006
0.890000,	0.001571,	0.000006
0.910000,	0.001571,	0.000006
0.930000,	0.001571,	0.000006
0.950000,	0.001571,	0.000006
0.970000,	0.001571,	0.000006
0.990000,	0.001571,	0.000006
0.010000,	0.001872,	0.000006
0.030000,	0.001872,	0.000006
0.050000,	0.001872,	0.000006
0.070000,	0.001872,	0.000006
0.090000,	0.001872,	0.000006
0.110000,	0.001872,	0.000006
0.130000,	0.001872,	0.000006
0.150000,	0.001872,	0.000006
0.170000,	0.001872,	0.000006
0.190000,	0.001872,	0.000006
0.210000,	0.001872,	0.000006
0.230000,	0.001872,	0.000006
0.250000,	0.001872,	0.000006
0.270000,	0.001872,	0.000006
0.290000,	0.001872,	0.000006
0.310000,	0.001872,	0.000006
0.330000,	0.001872,	0.000006
0.350000,	0.001872,	0.000006
0.370000,	0.001872,	0.000006
0.390000,	0.001872,	0.000006
0.410000,	0.001872,	0.000006
0.430000,	0.001872,	0.000006
0.450000,	0.001872,	0.000006
0.470000,	0.001872,	0.000006
0.490000,	0.001872,	0.000006
0.510000,	0.001872,	0.000006
0.530000,	0.001872,	0.000006
0.550000,	0.001872,	0.000006
0.570000,	0.001872,	0.000006
0.590000,	0.001872,	0.000006
0.610000,	0.001872,	0.000006
0.630000,	0.001872,	0.000006
0.650000,	0.001872,	0.000006
0.670000,	0.001872,	0.000006
0.690000,	0.001872,	0.000006
0.710000,	0.001872,	0.000006
0.730000,	0.001872,	0.000006
0.750000,	0.001872,	0.000006
0.770000,	0.001872,	0.000006
0.790000,	0.001872,	0.000006
0.810000,	0.001872,	0.000006
0.830000,	0.001872,	0.000006
0.850000,	0.001872,	0.000006
0.870000,	0.001872,	0.000006
0.890000,	0.001872,	0.000006
0.910000,	0.001872,	0.000006
0.930000,	0.001872,	0.000006
0.950000,	0.001872,	0.000006
0.970000,	0.001872,	0.000006
0.990000,	0.001872,	0.000006
0.010000,	0.002224,	0.000008
0.030000,	0.002224,	0.000008
0.050000,	0.002224,	0.000008
0.070000,	0.002224,	0.000008
0.090000,	0.002224,	0.000008
0.110000,	0.002224,	0.000008
0.130000,	0.002224,	0.000008
0.150000,	0.002224,	0.000008
0.170000,	0.002224,	0.000008
0.190000,	0.002224,	0.000008
0.210000,	0.002224,	0.000008
0.230000,	0.002224,	0.000008
0.250000,	0.002224,	0.000008
0.270000,	0.002224,	0.000008
0.290000,	0.002224,	0.000008
0.310000,	0.002224,	0.000008
0.330000,	0.002224,	0.000008
0.350000,	0.002224,	0.000008
0.370000,	0.002224,	0.000008
0.390000,	0.002224,	0.000008
0.410000,	0.002224,	0.000008
0.430000,	0.002224,	0.000008
0.450000,	0.002224,	0.000008
0.470000,	0.002224,	0.000008
0.490000,	0.002224,	0.000008
0.510000,	0.002224,	0.000008
0.530000,	0.002224,	0.000008
0.550000,	0.002224,	0.000008
0.570000,	0.002224,	0.000008
0.590000,	0.002224,	0.000008
0.610000,	0.002224,	0.000008
0.630000,	0.002224,	0.000008
0.650000,	0.002224,	0.000008
0.670000,	0.002224,	0.000008
0.690000,	0.002224,	0.000008
0.710000,	0.002224,	0.000008
0.730000,	0.002224,	0.000008
0.750000,	0.002224,	0.000008
0.770000,	0.002224,	0.000008
0.790000,	0.002224,	0.000008
0.810000,	0.002224,	0.000008
0.830000,	0.002224,	0.000008
0.850000,	0.002224,	0.000008
0.870000,	0.002224,	0.000008
0.890000,	0.002224,	0.000008
0.910000,	0.002224,	0.000008
0.930000,	0.002224,	0.000008
0.950000,	0.002224,	0.000008
0.970000,	0.002224,	0.000008
0.990000,	0.002224,	0.000008
0.010000,	0.002637,	0.000009
0.030000,	0.002637,	0.000009
0.050000,	0.002637,	0.000009
0.070000,	0.002637,	0.000009
0.090000,	0.002637,	0.000009
0.110000,	0.002637,	0.000009
0.130000,	0.002637,	0.000009
0.150000,	0.002637,	0.000009
0.170000,	0.002637,	0.000009
0.190000,	0.002637,	0.000009
0.210000,	0.002637,	0.000009
0.230000,	0.002637,	0.000009
0.250000,	0.002637,	0.000009
0.270000,	0.002637,	0.000009
0.290000,	0.002637,	0.000009
0.310000,	0.002637,	0.000009
0.330000,	0.002637,	0.000009
0.350000,	0.002637,	0.000009
0.370000,	0.002637,	0.000009
0.390000,	0.002637,	0.000009
0.410000,	0.002637,	0.000009
0.430000,	0.002637,	0.000009
0.450000,	0.002637,	0.000009
0.470000,	0.002637,	0.000009
0.490000,	0.002637,	0.000009
0.510000,	0.002637,	0.000009
0.530000,	0.002637,	0.000009
0.550000,	0.002637,	0.000009
0.570000,	0.002637,	0.000009
0.590000,	0.002637,	0.000009
0.610000,	0.002637,	0.000009
0.630000,	0.002637,	0.000009
0.650000,	0.002637,	0.000009
0.670000,	0.002637,	0.000009
0.690000,	0.002637,	0.000009
0.710000,	0.002637,	0.000009
0.730000,	0.002637,	0.000009
0.750000,	0.002637,	0.000009
0.770000,	0.002637,	0.000009
0.790000,	0.002637,	0.000009
0.810000,	0.002637,	0.000009
0.830000,	0.002637,	0.000009
0.850000,	0.002637,	0.000009
0.870000,	0.002637,	0.000009
0.890000,	0.002637,	0.000009
0.910000,	0.002637,	0.000009
0.930000,	0.002637,	0.000009
0.950000,	0.002637,	0.000009
0.970000,	0.002637,	0.000009
0.990000,	0.002637,	0.000009
0.010000,	0.003122,	0.000010
0.030000,	0.003122,	0.000010
0.050000,	0.003122,	0.000010
0.070000,	0.003122,	0.000010
0.090000,	0.003122,	0.000010
0.110000,	0.003122,	0.000010
0.130000,	0.003122,	0.000010
0.150000,	0.003122,	0.000010
0.170000,	0.003122,	0.000010
0.190000,	0.003122,	0.000010
0.210000,	0.003122,	0.000010
0.230000,	0.003122,	0.000010
0.250000,	0.003122,	0.000010
0.270000,	0.003122,	0.000010
0.290000,	0.003122,	0.000010
0.310000,	0.003122,	0.000010
0.330000,	0.003122,	0.000010
0.350000,	0.003122,	0.000010
0.370000,	0.003122,	0.000010
0.390000,	0.003122,	0.000010
0.410000,	0.003122,	0.000010
0.430000,	0.003122,	0.000010
0.450000,	0.003122,	0.000010
0.470000,	0.003122,	0.000010
0.490000,	0.003122,	0.000010
0.510000,	0.003122,	0.000010
0.530000,	0.003122,	0.000010
0.550000,	0.003122,	0.000010
0.570000,	0.003122,	0.000010
0.590000,	0.003122,	0.000010
0.610000,	0.003122,	0.000010
0.630000,	0.003122,	0.000010
0.650000,	0.003122,	0.000010
0.670000,	0.003122,	0.000010
0.690000,	0.003122,	0.000010
0.710000,	0.003122,	0.000010
0.730000,	0.003122,	0.000010
0.750000,	0.003122,	0.000010
0.770000,	0.003122,	0.000010
0.790000,	0.003122,	0.000010
0.810000,	0.003122,	0.000010
0.830000,	0.003122,	0.000010
0.850000,	0.003122,	0.000010
0.870000,	0.003122,	0.000010
0.890000,	0.003122,	0.000010
0.910000,	0.003122,	0.000010
0.930000,	0.003122,	0.000010
0.950000,	0.003122,	0.000010
0.970000,	0.003122,	0.000010
0.990000,	0.003122,	0.000010
0.010000,	0.003689,	0.000012
0.030000,	0.003689,	0.000012
0.050000,	0.003689,	0.000012
0.070000,	0.003689,	0.000012
0.090000,	0.003689,	0.000012
0.110000,	0.003689,	0.000012
0.130000,	0.003689,	0.000012
0.150000,	0.003689,	0.000012
0.170000,	0.003689,	0.000012
0.190000,	0.003689,	0.000012
0.210000,	0.003689,	0.000012
0.230000,	0.003689,	0.000012
0.250000,	0.003689,	0.000012
0.270000,	0.003689,	0.000012
0.290000,	0.003689,	0.000012
0.310000,	0.003689,	0.000012
0.330000,	0.003689,	0.000012
0.350000,	0.003689,	0.000012
0.370000,	0.003689,	0.000012
0.390000,	0.003689,	0.000012
0.410000,	0.003689,	0.000012
0.430000,	0.003689,	0.000012
0.450000,	0.003689,	0.000012
0.470000,	0.003689,	0.000012
0.490000,	0.003689,	0.000012
0.510000,	0.003689,	0.000012
0.530000,	0.003689,	0.000012
0.550000,	0.003689,	0.000012
0.570000,	0.003689,	0.000012
0.590000,	0.003689,	0.000012
0.610000,	0.003689,	0.000012
0.630000,	0.003689,	0.000012
0.650000,	0.003689,	0.000012
0.670000,	0.003689,	0.000012
0.690000,	0.003689,	0.000012
0.710000,	0.003689,	0.000012
0.730000,	0.003689,	0.000012
0.750000,	0.003689,	0.000012
0.770000,	0.003689,	0.000012
0.790000,	0.003689,	0.000012
0.810000,	0.003689,	0.000012
0.830000,	0.003689,	0.000012
0.850000,	0.003689,	0.000012
0.870000,	0.003689,	0.000012
0.890000,	0.003689,	0.000012
0.910000,	0.003689,	0.000012
0.930000,	0.003689,	0.000012
0.950000,	0.003689,	0.000012
0.970000,	0.003689,	0.000012
0.990000,	0.003689,	0.000012
0.010000,	0.004354,	0.000014
0.030000,	0.004354,	0.000014
0.050000,	0.004354,	0.000014
0.070000,	0.004354,	0.000014
0.090000,	0.004354,	0.000014
0.110000,	0.004354,	0.000014
0.130000,	0.004354,	0.000014
0.150000,	0.004354,	0.000014
0.170000,	0.004354,	0.000014
0.190000,	0.004354,	0.000014
0.210000,	0.004354,	0.000014
0.230000,	0.004354,	0.000014
0.250000,	0.004354,	0.000014
0.270000,	0.004354,	0.000014
0.290000,	0.004354,	0.000014
0.310000,	0.004354,	0.000014
0.330000,	0.004354,	0.000014
0.350000,	0.004354,	0.000014
0.370000,	0.004354,	0.000014
0.390000,	0.004354,	0.000014
0.410000,	0.004354,	0.000014
0.430000,	0.004354,	0.000014
0.450000,	0.004354,	0.000014
0.470000,	0.004354,	0.000014
0.490000,	0.004354,	0.000014
0.510000,	0.004354,	0.000014
0.530000,	0.004354,	0.000014
0.550000,	0.004354,	0.000014
0.570000,	0.004354,	0.000014
0.590000,	0.004354,	0.000014
0.610000,	0.004354,	0.000014