TITLE = "MeshVolumeStats"
VARIABLES = "X", "Y", "VOL"
ZONE I=300, J=200, DATAPACKING=POINT
0.001667,	0.000003,	0.000000
0.005000,	0.000003,	0.000000
0.008334,	0.000003,	0.000000
0.011666,	0.000003,	0.000000
0.015000,	0.000003,	0.000000
0.018334,	0.000003,	0.000000
0.021667,	0.000003,	0.000000
0.025000,	0.000003,	0.000000
0.028333,	0.000003,	0.000000
0.031667,	0.000003,	0.000000
0.035000,	0.000003,	0.000000
0.038333,	0.000003,	0.000000
0.041667,	0.000003,	0.000000
0.045000,	0.000003,	0.000000
0.048334,	0.000003,	0.000000
0.051667,	0.000003,	0.000000
0.055000,	0.000003,	0.000000
0.058333,	0.000003,	0.000000
0.061666,	0.000003,	0.000000
0.065000,	0.000003,	0.000000
0.068334,	0.000003,	0.000000
0.071666,	0.000003,	0.000000
0.075000,	0.000003,	0.000000
0.078334,	0.000003,	0.000000
0.081667,	0.000003,	0.000000
0.085000,	0.000003,	0.000000
0.088333,	0.000003,	0.000000
0.091666,	0.000003,	0.000000
0.095000,	0.000003,	0.000000
0.098334,	0.000003,	0.000000
0.101666,	0.000003,	0.000000
0.105000,	0.000003,	0.000000
0.108333,	0.000003,	0.000000
0.111667,	0.000003,	0.000000
0.115000,	0.000003,	0.000000
0.118334,	0.000003,	0.000000
0.121666,	0.000003,	0.000000
0.125000,	0.000003,	0.000000
0.128333,	0.000003,	0.000000
0.131667,	0.000003,	0.000000
0.135000,	0.000003,	0.000000
0.138333,	0.000003,	0.000000
0.141667,	0.000003,	0.000000
0.145000,	0.000003,	0.000000
0.148334,	0.000003,	0.000000
0.151666,	0.000003,	0.000000
0.155000,	0.000003,	0.000000
0.158334,	0.000003,	0.000000
0.161666,	0.000003,	0.000000
0.165000,	0.000003,	0.000000
0.168334,	0.000003,	0.000000
0.171666,	0.000003,	0.000000
0.175000,	0.000003,	0.000000
0.178334,	0.000003,	0.000000
0.181667,	0.000003,	0.000000
0.185000,	0.000003,	0.000000
0.188334,	0.000003,	0.000000
0.191667,	0.000003,	0.000000
0.195000,	0.000003,	0.000000
0.198334,	0.000003,	0.000000
0.201667,	0.000003,	0.000000
0.205000,	0.000003,	0.000000
0.208334,	0.000003,	0.000000
0.211666,	0.000003,	0.000000
0.215000,	0.000003,	0.000000
0.218334,	0.000003,	0.000000
0.221666,	0.000003,	0.000000
0.225000,	0.000003,	0.000000
0.228334,	0.000003,	0.000000
0.231666,	0.000003,	0.000000
0.235000,	0.000003,	0.000000
0.238333,	0.000003,	0.000000
0.241667,	0.000003,	0.000000
0.245000,	0.000003,	0.000000
0.248333,	0.000003,	0.000000
0.251667,	0.000003,	0.000000
0.255000,	0.000003,	0.000000
0.258333,	0.000003,	0.000000
0.261667,	0.000003,	0.000000
0.265000,	0.000003,	0.000000
0.268334,	0.000003,	0.000000
0.271667,	0.000003,	0.000000
0.275000,	0.000003,	0.000000
0.278334,	0.000003,	0.000000
0.281667,	0.000003,	0.000000
0.285000,	0.000003,	0.000000
0.288334,	0.000003,	0.000000
0.291666,	0.000003,	0.000000
0.295000,	0.000003,	0.000000
0.298334,	0.000003,	0.000000
0.301667,	0.000003,	0.000000
0.305000,	0.000003,	0.000000
0.308334,	0.000003,	0.000000
0.311666,	0.000003,	0.000000
0.315000,	0.000003,	0.000000
0.318333,	0.000003,	0.000000
0.321666,	0.000003,	0.000000
0.325000,	0.000003,	0.000000
0.328334,	0.000003,	0.000000
0.331666,	0.000003,	0.000000
0.335000,	0.000003,	0.000000
0.338334,	0.000003,	0.000000
0.341667,	0.000003,	0.000000
0.345000,	0.000003,	0.000000
0.348333,	0.000003,	0.000000
0.351666,	0.000003,	0.000000
0.355000,	0.000003,	0.000000
0.358334,	0.000003,	0.000000
0.361667,	0.000003,	0.000000
0.365000,	0.000003,	0.000000
0.368333,	0.000003,	0.000000
0.371667,	0.000003,	0.000000
0.375000,	0.000003,	0.000000
0.378333,	0.000003,	0.000000
0.381667,	0.000003,	0.000000
0.385000,	0.000003,	0.000000
0.388333,	0.000003,	0.000000
0.391667,	0.000003,	0.000000
0.395000,	0.000003,	0.000000
0.398334,	0.000003,	0.000000
0.401667,	0.000003,	0.000000
0.405000,	0.000003,	0.000000
0.408334,	0.000003,	0.000000
0.411666,	0.000003,	0.000000
0.415000,	0.000003,	0.000000
0.418334,	0.000003,	0.000000
0.421666,	0.000003,	0.000000
0.425000,	0.000003,	0.000000
0.428334,	0.000003,	0.000000
0.431667,	0.000003,	0.000000
0.435000,	0.000003,	0.000000
0.438334,	0.000003,	0.000000
0.441666,	0.000003,	0.000000
0.445000,	0.000003,	0.000000
0.448333,	0.000003,	0.000000
0.451666,	0.000003,	0.000000
0.455000,	0.000003,	0.000000
0.458334,	0.000003,	0.000000
0.461666,	0.000003,	0.000000
0.465000,	0.000003,	0.000000
0.468333,	0.000003,	0.000000
0.471666,	0.000003,	0.000000
0.475000,	0.000003,	0.000000
0.478333,	0.000003,	0.000000
0.481666,	0.000003,	0.000000
0.485000,	0.000003,	0.000000
0.488333,	0.000003,	0.000000
0.491667,	0.000003,	0.000000
0.495000,	0.000003,	0.000000
0.498333,	0.000003,	0.000000
0.501667,	0.000003,	0.000000
0.505000,	0.000003,	0.000000
0.508333,	0.000003,	0.000000
0.511667,	0.000003,	0.000000
0.515000,	0.000003,	0.000000
0.518334,	0.000003,	0.000000
0.521667,	0.000003,	0.000000
0.525000,	0.000003,	0.000000
0.528334,	0.000003,	0.000000
0.531667,	0.000003,	0.000000
0.535000,	0.000003,	0.000000
0.538334,	0.000003,	0.000000
0.541667,	0.000003,	0.000000
0.545000,	0.000003,	0.000000
0.548334,	0.000003,	0.000000
0.551667,	0.000003,	0.000000
0.555000,	0.000003,	0.000000
0.558334,	0.000003,	0.000000
0.561667,	0.000003,	0.000000
0.565000,	0.000003,	0.000000
0.568334,	0.000003,	0.000000
0.571666,	0.000003,	0.000000
0.575000,	0.000003,	0.000000
0.578334,	0.000003,	0.000000
0.581666,	0.000003,	0.000000
0.585000,	0.000003,	0.000000
0.588334,	0.000003,	0.000000
0.591666,	0.000003,	0.000000
0.595000,	0.000003,	0.000000
0.598333,	0.000003,	0.000000
0.601666,	0.000003,	0.000000
0.605000,	0.000003,	0.000000
0.608333,	0.000003,	0.000000
0.611667,	0.000003,	0.000000
0.615000,	0.000003,	0.000000
0.618333,	0.000003,	0.000000
0.621667,	0.000003,	0.000000
0.625000,	0.000003,	0.000000
0.628333,	0.000003,	0.000000
0.631667,	0.000003,	0.000000
0.635000,	0.000003,	0.000000
0.638333,	0.000003,	0.000000
0.641667,	0.000003,	0.000000
0.645000,	0.000003,	0.000000
0.648334,	0.000003,	0.000000
0.651667,	0.000003,	0.000000
0.655000,	0.000003,	0.000000
0.658334,	0.000003,	0.000000
0.661666,	0.000003,	0.000000
0.665000,	0.000003,	0.000000
0.668334,	0.000003,	0.000000
0.671666,	0.000003,	0.000000
0.675000,	0.000003,	0.000000
0.678334,	0.000003,	0.000000
0.681667,	0.000003,	0.000000
0.685000,	0.000003,	0.000000
0.688333,	0.000003,	0.000000
0.691666,	0.000003,	0.000000
0.695000,	0.000003,	0.000000
0.698334,	0.000003,	0.000000
0.701666,	0.000003,	0.000000
0.705000,	0.000003,	0.000000
0.708333,	0.000003,	0.000000
0.711666,	0.000003,	0.000000
0.715000,	0.000003,	0.000000
0.718333,	0.000003,	0.000000
0.721666,	0.000003,	0.000000
0.725000,	0.000003,	0.000000
0.728333,	0.000003,	0.000000
0.731666,	0.000003,	0.000000
0.735000,	0.000003,	0.000000
0.738333,	0.000003,	0.000000
0.741667,	0.000003,	0.000000
0.745000,	0.000003,	0.000000
0.748333,	0.000003,	0.000000
0.751667,	0.000003,	0.000000
0.755000,	0.000003,	0.000000
0.758333,	0.000003,	0.000000
0.761667,	0.000003,	0.000000
0.765000,	0.000003,	0.000000
0.768334,	0.000003,	0.000000
0.771667,	0.000003,	0.000000
0.775000,	0.000003,	0.000000
0.778334,	0.000003,	0.000000
0.781667,	0.000003,	0.000000
0.785000,	0.000003,	0.000000
0.788334,	0.000003,	0.000000
0.791667,	0.000003,	0.000000
0.795000,	0.000003,	0.000000
0.798334,	0.000003,	0.000000
0.801667,	0.000003,	0.000000
0.805000,	0.000003,	0.000000
0.808334,	0.000003,	0.000000
0.811667,	0.000003,	0.000000
0.815000,	0.000003,	0.000000
0.818334,	0.000003,	0.000000
0.821666,	0.000003,	0.000000
0.825000,	0.000003,	0.000000
0.828334,	0.000003,	0.000000
0.831666,	0.000003,	0.000000
0.835000,	0.000003,	0.000000
0.838334,	0.000003,	0.000000
0.841666,	0.000003,	0.000000
0.845000,	0.000003,	0.000000
0.848333,	0.000003,	0.000000
0.851666,	0.000003,	0.000000
0.855000,	0.000003,	0.000000
0.858333,	0.000003,	0.000000
0.861667,	0.000003,	0.000000
0.865000,	0.000003,	0.000000
0.868333,	0.000003,	0.000000
0.871667,	0.000003,	0.000000
0.875000,	0.000003,	0.000000
0.878333,	0.000003,	0.000000
0.881667,	0.000003,	0.000000
0.885000,	0.000003,	0.000000
0.888333,	0.000003,	0.000000
0.891667,	0.000003,	0.000000
0.895000,	0.000003,	0.000000
0.898334,	0.000003,	0.000000
0.901667,	0.000003,	0.000000
0.905000,	0.000003,	0.000000
0.908334,	0.000003,	0.000000
0.911666,	0.000003,	0.000000
0.915000,	0.000003,	0.000000
0.918334,	0.000003,	0.000000
0.921666,	0.000003,	0.000000
0.925000,	0.000003,	0.000000
0.928334,	0.000003,	0.000000
0.931667,	0.000003,	0.000000
0.935000,	0.000003,	0.000000
0.938333,	0.000003,	0.000000
0.941666,	0.000003,	0.000000
0.945000,	0.000003,	0.000000
0.948334,	0.000003,	0.000000
0.951666,	0.000003,	0.000000
0.955000,	0.000003,	0.000000
0.958333,	0.000003,	0.000000
0.961666,	0.000003,	0.000000
0.965000,	0.000003,	0.000000
0.968333,	0.000003,	0.000000
0.971666,	0.000003,	0.000000
0.975000,	0.000003,	0.000000
0.978333,	0.000003,	0.000000
0.981666,	0.000003,	0.000000
0.985000,	0.000003,	0.000000
0.988333,	0.000003,	0.000000
0.991667,	0.000003,	0.000000
0.995000,	0.000003,	0.000000
0.998333,	0.000003,	0.000000
0.001667,	0.000016,	0.000000
0.005000,	0.000016,	0.000000
0.008334,	0.000016,	0.000000
0.011666,	0.000016,	0.000000
0.015000,	0.000016,	0.000000
0.018334,	0.000016,	0.000000
0.021667,	0.000016,	0.000000
0.025000,	0.000016,	0.000000
0.028333,	0.000016,	0.000000
0.031667,	0.000016,	0.000000
0.035000,	0.000016,	0.000000
0.038333,	0.000016,	0.000000
0.041667,	0.000016,	0.000000
0.045000,	0.000016,	0.000000
0.048334,	0.000016,	0.000000
0.051667,	0.000016,	0.000000
0.055000,	0.000016,	0.000000
0.058333,	0.000016,	0.000000
0.061666,	0.000016,	0.000000
0.065000,	0.000016,	0.000000
0.068334,	0.000016,	0.000000
0.071666,	0.000016,	0.000000
0.075000,	0.000016,	0.000000
0.078334,	0.000016,	0.000000
0.081667,	0.000016,	0.000000
0.085000,	0.000016,	0.000000
0.088333,	0.000016,	0.000000
0.091666,	0.000016,	0.000000
0.095000,	0.000016,	0.000000
0.098334,	0.000016,	0.000000
0.101666,	0.000016,	0.000000
0.105000,	0.000016,	0.000000
0.108333,	0.000016,	0.000000
0.111667,	0.000016,	0.000000
0.115000,	0.000016,	0.000000
0.118334,	0.000016,	0.000000
0.121666,	0.000016,	0.000000
0.125000,	0.000016,	0.000000
0.128333,	0.000016,	0.000000
0.131667,	0.000016,	0.000000
0.135000,	0.000016,	0.000000
0.138333,	0.000016,	0.000000
0.141667,	0.000016,	0.000000
0.145000,	0.000016,	0.000000
0.148334,	0.000016,	0.000000
0.151666,	0.000016,	0.000000
0.155000,	0.000016,	0.000000
0.158334,	0.000016,	0.000000
0.161666,	0.000016,	0.000000
0.165000,	0.000016,	0.000000
0.168334,	0.000016,	0.000000
0.171666,	0.000016,	0.000000
0.175000,	0.000016,	0.000000
0.178334,	0.000016,	0.000000
0.181667,	0.000016,	0.000000
0.185000,	0.000016,	0.000000
0.188334,	0.000016,	0.000000
0.191667,	0.000016,	0.000000
0.195000,	0.000016,	0.000000
0.198334,	0.000016,	0.000000
0.201667,	0.000016,	0.000000
0.205000,	0.000016,	0.000000
0.208334,	0.000016,	0.000000
0.211666,	0.000016,	0.000000
0.215000,	0.000016,	0.000000
0.218334,	0.000016,	0.000000
0.221666,	0.000016,	0.000000
0.225000,	0.000016,	0.000000
0.228334,	0.000016,	0.000000
0.231666,	0.000016,	0.000000
0.235000,	0.000016,	0.000000
0.238333,	0.000016,	0.000000
0.241667,	0.000016,	0.000000
0.245000,	0.000016,	0.000000
0.248333,	0.000016,	0.000000
0.251667,	0.000016,	0.000000
0.255000,	0.000016,	0.000000
0.258333,	0.000016,	0.000000
0.261667,	0.000016,	0.000000
0.265000,	0.000016,	0.000000
0.268334,	0.000016,	0.000000
0.271667,	0.000016,	0.000000
0.275000,	0.000016,	0.000000
0.278334,	0.000016,	0.000000
0.281667,	0.000016,	0.000000
0.285000,	0.000016,	0.000000
0.288334,	0.000016,	0.000000
0.291666,	0.000016,	0.000000
0.295000,	0.000016,	0.000000
0.298334,	0.000016,	0.000000
0.301667,	0.000016,	0.000000
0.305000,	0.000016,	0.000000
0.308334,	0.000016,	0.000000
0.311666,	0.000016,	0.000000
0.315000,	0.000016,	0.000000
0.318333,	0.000016,	0.000000
0.321666,	0.000016,	0.000000
0.325000,	0.000016,	0.000000
0.328334,	0.000016,	0.000000
0.331666,	0.000016,	0.000000
0.335000,	0.000016,	0.000000
0.338334,	0.000016,	0.000000
0.341667,	0.000016,	0.000000
0.345000,	0.000016,	0.000000
0.348333,	0.000016,	0.000000
0.351666,	0.000016,	0.000000
0.355000,	0.000016,	0.000000
0.358334,	0.000016,	0.000000
0.361667,	0.000016,	0.000000
0.365000,	0.000016,	0.000000
0.368333,	0.000016,	0.000000
0.371667,	0.000016,	0.000000
0.375000,	0.000016,	0.000000
0.378333,	0.000016,	0.000000
0.381667,	0.000016,	0.000000
0.385000,	0.000016,	0.000000
0.388333,	0.000016,	0.000000
0.391667,	0.000016,	0.000000
0.395000,	0.000016,	0.000000
0.398334,	0.000016,	0.000000
0.401667,	0.000016,	0.000000
0.405000,	0.000016,	0.000000
0.408334,	0.000016,	0.000000
0.411666,	0.000016,	0.000000
0.415000,	0.000016,	0.000000
0.418334,	0.000016,	0.000000
0.421666,	0.000016,	0.000000
0.425000,	0.000016,	0.000000
0.428334,	0.000016,	0.000000
0.431667,	0.000016,	0.000000
0.435000,	0.000016,	0.000000
0.438334,	0.000016,	0.000000
0.441666,	0.000016,	0.000000
0.445000,	0.000016,	0.000000
0.448333,	0.000016,	0.000000
0.451666,	0.000016,	0.000000
0.455000,	0.000016,	0.000000
0.458334,	0.000016,	0.000000
0.461666,	0.000016,	0.000000
0.465000,	0.000016,	0.000000
0.468333,	0.000016,	0.000000
0.471666,	0.000016,	0.000000
0.475000,	0.000016,	0.000000
0.478333,	0.000016,	0.000000
0.481666,	0.000016,	0.000000
0.485000,	0.000016,	0.000000
0.488333,	0.000016,	0.000000
0.491667,	0.000016,	0.000000
0.495000,	0.000016,	0.000000
0.498333,	0.000016,	0.000000
0.501667,	0.000016,	0.000000
0.505000,	0.000016,	0.000000
0.508333,	0.000016,	0.000000
0.511667,	0.000016,	0.000000
0.515000,	0.000016,	0.000000
0.518334,	0.000016,	0.000000
0.521667,	0.000016,	0.000000
0.525000,	0.000016,	0.000000
0.528334,	0.000016,	0.000000
0.531667,	0.000016,	0.000000
0.535000,	0.000016,	0.000000
0.538334,	0.000016,	0.000000
0.541667,	0.000016,	0.000000
0.545000,	0.000016,	0.000000
0.548334,	0.000016,	0.000000
0.551667,	0.000016,	0.000000
0.555000,	0.000016,	0.000000
0.558334,	0.000016,	0.000000
0.561667,	0.000016,	0.000000
0.565000,	0.000016,	0.000000
0.568334,	0.000016,	0.000000
0.571666,	0.000016,	0.000000
0.575000,	0.000016,	0.000000
0.578334,	0.000016,	0.000000
0.581666,	0.000016,	0.000000
0.585000,	0.000016,	0.000000
0.588334,	0.000016,	0.000000
0.591666,	0.000016,	0.000000
0.595000,	0.000016,	0.000000
0.598333,	0.000016,	0.000000
0.601666,	0.000016,	0.000000
0.605000,	0.000016,	0.000000
0.608333,	0.000016,	0.000000
0.611667,	0.000016,	0.000000
0.615000,	0.000016,	0.000000
0.618333,	0.000016,	0.000000
0.621667,	0.000016,	0.000000
0.625000,	0.000016,	0.000000
0.628333,	0.000016,	0.000000
0.631667,	0.000016,	0.000000
0.635000,	0.000016,	0.000000
0.638333,	0.000016,	0.000000
0.641667,	0.000016,	0.000000
0.645000,	0.000016,	0.000000
0.648334,	0.000016,	0.000000
0.651667,	0.000016,	0.000000
0.655000,	0.000016,	0.000000
0.658334,	0.000016,	0.000000
0.661666,	0.000016,	0.000000
0.665000,	0.000016,	0.000000
0.668334,	0.000016,	0.000000
0.671666,	0.000016,	0.000000
0.675000,	0.000016,	0.000000
0.678334,	0.000016,	0.000000
0.681667,	0.000016,	0.000000
0.685000,	0.000016,	0.000000
0.688333,	0.000016,	0.000000
0.691666,	0.000016,	0.000000
0.695000,	0.000016,	0.000000
0.698334,	0.000016,	0.000000
0.701666,	0.000016,	0.000000
0.705000,	0.000016,	0.000000
0.708333,	0.000016,	0.000000
0.711666,	0.000016,	0.000000
0.715000,	0.000016,	0.000000
0.718333,	0.000016,	0.000000
0.721666,	0.000016,	0.000000
0.725000,	0.000016,	0.000000
0.728333,	0.000016,	0.000000
0.731666,	0.000016,	0.000000
0.735000,	0.000016,	0.000000
0.738333,	0.000016,	0.000000
0.741667,	0.000016,	0.000000
0.745000,	0.000016,	0.000000
0.748333,	0.000016,	0.000000
0.751667,	0.000016,	0.000000
0.755000,	0.000016,	0.000000
0.758333,	0.000016,	0.000000
0.761667,	0.000016,	0.000000
0.765000,	0.000016,	0.000000
0.768334,	0.000016,	0.000000
0.771667,	0.000016,	0.000000
0.775000,	0.000016,	0.000000
0.778334,	0.000016,	0.000000
0.781667,	0.000016,	0.000000
0.785000,	0.000016,	0.000000
0.788334,	0.000016,	0.000000
0.791667,	0.000016,	0.000000
0.795000,	0.000016,	0.000000
0.798334,	0.000016,	0.000000
0.801667,	0.000016,	0.000000
0.805000,	0.000016,	0.000000
0.808334,	0.000016,	0.000000
0.811667,	0.000016,	0.000000
0.815000,	0.000016,	0.000000
0.818334,	0.000016,	0.000000
0.821666,	0.000016,	0.000000
0.825000,	0.000016,	0.000000
0.828334,	0.000016,	0.000000
0.831666,	0.000016,	0.000000
0.835000,	0.000016,	0.000000
0.838334,	0.000016,	0.000000
0.841666,	0.000016,	0.000000
0.845000,	0.000016,	0.000000
0.848333,	0.000016,	0.000000
0.851666,	0.000016,	0.000000
0.855000,	0.000016,	0.000000
0.858333,	0.000016,	0.000000
0.861667,	0.000016,	0.000000
0.865000,	0.000016,	0.000000
0.868333,	0.000016,	0.000000
0.871667,	0.000016,	0.000000
0.875000,	0.000016,	0.000000
0.878333,	0.000016,	0.000000
0.881667,	0.000016,	0.000000
0.885000,	0.000016,	0.000000
0.888333,	0.000016,	0.000000
0.891667,	0.000016,	0.000000
0.895000,	0.000016,	0.000000
0.898334,	0.000016,	0.000000
0.901667,	0.000016,	0.000000
0.905000,	0.000016,	0.000000
0.908334,	0.000016,	0.000000
0.911666,	0.000016,	0.000000
0.915000,	0.000016,	0.000000
0.918334,	0.000016,	0.000000
0.921666,	0.000016,	0.000000
0.925000,	0.000016,	0.000000
0.928334,	0.000016,	0.000000
0.931667,	0.000016,	0.000000
0.935000,	0.000016,	0.000000
0.938333,	0.000016,	0.000000
0.941666,	0.000016,	0.000000
0.945000,	0.000016,	0.000000
0.948334,	0.000016,	0.000000
0.951666,	0.000016,	0.000000
0.955000,	0.000016,	0.000000
0.958333,	0.000016,	0.000000
0.961666,	0.000016,	0.000000
0.965000,	0.000016,	0.000000
0.968333,	0.000016,	0.000000
0.971666,	0.000016,	0.000000
0.975000,	0.000016,	0.000000
0.978333,	0.000016,	0.000000
0.981666,	0.000016,	0.000000
0.985000,	0.000016,	0.000000
0.988333,	0.000016,	0.000000
0.991667,	0.000016,	0.000000
0.995000,	0.000016,	0.000000
0.998333,	0.000016,	0.000000
0.001667,	0.000041,	0.000000
0.005000,	0.000041,	0.000000
0.008334,	0.000041,	0.000000
0.011666,	0.000041,	0.000000
0.015000,	0.000041,	0.000000
0.018334,	0.000041,	0.000000
0.021667,	0.000041,	0.000000
0.025000,	0.000041,	0.000000
0.028333,	0.000041,	0.000000
0.031667,	0.000041,	0.000000
0.035000,	0.000041,	0.000000
0.038333,	0.000041,	0.000000
0.041667,	0.000041,	0.000000
0.045000,	0.000041,	0.000000
0.048334,	0.000041,	0.000000
0.051667,	0.000041,	0.000000
0.055000,	0.000041,	0.000000
0.058333,	0.000041,	0.000000
0.061666,	0.000041,	0.000000
0.065000,	0.000041,	0.000000
0.068334,	0.000041,	0.000000
0.071666,	0.000041,	0.000000
0.075000,	0.000041,	0.000000
0.078334,	0.000041,	0.000000
0.081667,	0.000041,	0.000000
0.085000,	0.000041,	0.000000
0.088333,	0.000041,	0.000000
0.091666,	0.000041,	0.000000
0.095000,	0.000041,	0.000000
0.098334,	0.000041,	0.000000
0.101666,	0.000041,	0.000000
0.105000,	0.000041,	0.000000
0.108333,	0.000041,	0.000000
0.111667,	0.000041,	0.000000
0.115000,	0.000041,	0.000000
0.118334,	0.000041,	0.000000
0.121666,	0.000041,	0.000000
0.125000,	0.000041,	0.000000
0.128333,	0.000041,	0.000000
0.131667,	0.000041,	0.000000
0.135000,	0.000041,	0.000000
0.138333,	0.000041,	0.000000
0.141667,	0.000041,	0.000000
0.145000,	0.000041,	0.000000
0.148334,	0.000041,	0.000000
0.151666,	0.000041,	0.000000
0.155000,	0.000041,	0.000000
0.158334,	0.000041,	0.000000
0.161666,	0.000041,	0.000000
0.165000,	0.000041,	0.000000
0.168334,	0.000041,	0.000000
0.171666,	0.000041,	0.000000
0.175000,	0.000041,	0.000000
0.178334,	0.000041,	0.000000
0.181667,	0.000041,	0.000000
0.185000,	0.000041,	0.000000
0.188334,	0.000041,	0.000000
0.191667,	0.000041,	0.000000
0.195000,	0.000041,	0.000000
0.198334,	0.000041,	0.000000
0.201667,	0.000041,	0.000000
0.205000,	0.000041,	0.000000
0.208334,	0.000041,	0.000000
0.211666,	0.000041,	0.000000
0.215000,	0.000041,	0.000000
0.218334,	0.000041,	0.000000
0.221666,	0.000041,	0.000000
0.225000,	0.000041,	0.000000
0.228334,	0.000041,	0.000000
0.231666,	0.000041,	0.000000
0.235000,	0.000041,	0.000000
0.238333,	0.000041,	0.000000
0.241667,	0.000041,	0.000000
0.245000,	0.000041,	0.000000
0.248333,	0.000041,	0.000000
0.251667,	0.000041,	0.000000
0.255000,	0.000041,	0.000000
0.258333,	0.000041,	0.000000
0.261667,	0.000041,	0.000000
0.265000,	0.000041,	0.000000
0.268334,	0.000041,	0.000000
0.271667,	0.000041,	0.000000
0.275000,	0.000041,	0.000000
0.278334,	0.000041,	0.000000
0.281667,	0.000041,	0.000000
0.285000,	0.000041,	0.000000
0.288334,	0.000041,	0.000000
0.291666,	0.000041,	0.000000
0.295000,	0.000041,	0.000000
0.298334,	0.000041,	0.000000
0.301667,	0.000041,	0.000000
0.305000,	0.000041,	0.000000
0.308334,	0.000041,	0.000000
0.311666,	0.000041,	0.000000
0.315000,	0.000041,	0.000000
0.318333,	0.000041,	0.000000
0.321666,	0.000041,	0.000000
0.325000,	0.000041,	0.000000
0.328334,	0.000041,	0.000000
0.331666,	0.000041,	0.000000
0.335000,	0.000041,	0.000000
0.338334,	0.000041,	0.000000
0.341667,	0.000041,	0.000000
0.345000,	0.000041,	0.000000
0.348333,	0.000041,	0.000000
0.351666,	0.000041,	0.000000
0.355000,	0.000041,	0.000000
0.358334,	0.000041,	0.000000
0.361667,	0.000041,	0.000000
0.365000,	0.000041,	0.000000
0.368333,	0.000041,	0.000000
0.371667,	0.000041,	0.000000
0.375000,	0.000041,	0.000000
0.378333,	0.000041,	0.000000
0.381667,	0.000041,	0.000000
0.385000,	0.000041,	0.000000
0.388333,	0.000041,	0.000000
0.391667,	0.000041,	0.000000
0.395000,	0.000041,	0.000000
0.398334,	0.000041,	0.000000
0.401667,	0.000041,	0.000000
0.405000,	0.000041,	0.000000
0.408334,	0.000041,	0.000000
0.411666,	0.000041,	0.000000
0.415000,	0.000041,	0.000000
0.418334,	0.000041,	0.000000
0.421666,	0.000041,	0.000000
0.425000,	0.000041,	0.000000
0.428334,	0.000041,	0.000000
0.431667,	0.000041,	0.000000
0.435000,	0.000041,	0.000000
0.438334,	0.000041,	0.000000
0.441666,	0.000041,	0.000000
0.445000,	0.000041,	0.000000
0.448333,	0.000041,	0.000000
0.451666,	0.000041,	0.000000
0.455000,	0.000041,	0.000000
0.458334,	0.000041,	0.000000
0.461666,	0.000041,	0.000000
0.465000,	0.000041,	0.000000
0.468333,	0.000041,	0.000000
0.471666,	0.000041,	0.000000
0.475000,	0.000041,	0.000000
0.478333,	0.000041,	0.000000
0.481666,	0.000041,	0.000000
0.485000,	0.000041,	0.000000
0.488333,	0.000041,	0.000000
0.491667,	0.000041,	0.000000
0.495000,	0.000041,	0.000000
0.498333,	0.000041,	0.000000
0.501667,	0.000041,	0.000000
0.505000,	0.000041,	0.000000
0.508333,	0.000041,	0.000000
0.511667,	0.000041,	0.000000
0.515000,	0.000041,	0.000000
0.518334,	0.000041,	0.000000
0.521667,	0.000041,	0.000000
0.525000,	0.000041,	0.000000
0.528334,	0.000041,	0.000000
0.531667,	0.000041,	0.000000
0.535000,	0.000041,	0.000000
0.538334,	0.000041,	0.000000
0.541667,	0.000041,	0.000000
0.545000,	0.000041,	0.000000
0.548334,	0.000041,	0.000000
0.551667,	0.000041,	0.000000
0.555000,	0.000041,	0.000000
0.558334,	0.000041,	0.000000
0.561667,	0.000041,	0.000000
0.565000,	0.000041,	0.000000
0.568334,	0.000041,	0.000000
0.571666,	0.000041,	0.000000
0.575000,	0.000041,	0.000000
0.578334,	0.000041,	0.000000
0.581666,	0.000041,	0.000000
0.585000,	0.000041,	0.000000
0.588334,	0.000041,	0.000000
0.591666,	0.000041,	0.000000
0.595000,	0.000041,	0.000000
0.598333,	0.000041,	0.000000
0.601666,	0.000041,	0.000000
0.605000,	0.000041,	0.000000
0.608333,	0.000041,	0.000000
0.611667,	0.000041,	0.000000
0.615000,	0.000041,	0.000000
0.618333,	0.000041,	0.000000
0.621667,	0.000041,	0.000000
0.625000,	0.000041,	0.000000
0.628333,	0.000041,	0.000000
0.631667,	0.000041,	0.000000
0.635000,	0.000041,	0.000000
0.638333,	0.000041,	0.000000
0.641667,	0.000041,	0.000000
0.645000,	0.000041,	0.000000
0.648334,	0.000041,	0.000000
0.651667,	0.000041,	0.000000
0.655000,	0.000041,	0.000000
0.658334,	0.000041,	0.000000
0.661666,	0.000041,	0.000000
0.665000,	0.000041,	0.000000
0.668334,	0.000041,	0.000000
0.671666,	0.000041,	0.000000
0.675000,	0.000041,	0.000000
0.678334,	0.000041,	0.000000
0.681667,	0.000041,	0.000000
0.685000,	0.000041,	0.000000
0.688333,	0.000041,	0.000000
0.691666,	0.000041,	0.000000
0.695000,	0.000041,	0.000000
0.698334,	0.000041,	0.000000
0.701666,	0.000041,	0.000000
0.705000,	0.000041,	0.000000
0.708333,	0.000041,	0.000000
0.711666,	0.000041,	0.000000
0.715000,	0.000041,	0.000000
0.718333,	0.000041,	0.000000
0.721666,	0.000041,	0.000000
0.725000,	0.000041,	0.000000
0.728333,	0.000041,	0.000000
0.731666,	0.000041,	0.000000
0.735000,	0.000041,	0.000000
0.738333,	0.000041,	0.000000
0.741667,	0.000041,	0.000000
0.745000,	0.000041,	0.000000
0.748333,	0.000041,	0.000000
0.751667,	0.000041,	0.000000
0.755000,	0.000041,	0.000000
0.758333,	0.000041,	0.000000
0.761667,	0.000041,	0.000000
0.765000,	0.000041,	0.000000
0.768334,	0.000041,	0.000000
0.771667,	0.000041,	0.000000
0.775000,	0.000041,	0.000000
0.778334,	0.000041,	0.000000
0.781667,	0.000041,	0.000000
0.785000,	0.000041,	0.000000
0.788334,	0.000041,	0.000000
0.791667,	0.000041,	0.000000
0.795000,	0.000041,	0.000000
0.798334,	0.000041,	0.000000
0.801667,	0.000041,	0.000000
0.805000,	0.000041,	0.000000
0.808334,	0.000041,	0.000000
0.811667,	0.000041,	0.000000
0.815000,	0.000041,	0.000000
0.818334,	0.000041,	0.000000
0.821666,	0.000041,	0.000000
0.825000,	0.000041,	0.000000
0.828334,	0.000041,	0.000000
0.831666,	0.000041,	0.000000
0.835000,	0.000041,	0.000000
0.838334,	0.000041,	0.000000
0.841666,	0.000041,	0.000000
0.845000,	0.000041,	0.000000
0.848333,	0.000041,	0.000000
0.851666,	0.000041,	0.000000
0.855000,	0.000041,	0.000000
0.858333,	0.000041,	0.000000
0.861667,	0.000041,	0.000000
0.865000,	0.000041,	0.000000
0.868333,	0.000041,	0.000000
0.871667,	0.000041,	0.000000
0.875000,	0.000041,	0.000000
0.878333,	0.000041,	0.000000
0.881667,	0.000041,	0.000000
0.885000,	0.000041,	0.000000
0.888333,	0.000041,	0.000000
0.891667,	0.000041,	0.000000
0.895000,	0.000041,	0.000000
0.898334,	0.000041,	0.000000
0.901667,	0.000041,	0.000000
0.905000,	0.000041,	0.000000
0.908334,	0.000041,	0.000000
0.911666,	0.000041,	0.000000
0.915000,	0.000041,	0.000000
0.918334,	0.000041,	0.000000
0.921666,	0.000041,	0.000000
0.925000,	0.000041,	0.000000
0.928334,	0.000041,	0.000000
0.931667,	0.000041,	0.000000
0.935000,	0.000041,	0.000000
0.938333,	0.000041,	0.000000
0.941666,	0.000041,	0.000000
0.945000,	0.000041,	0.000000
0.948334,	0.000041,	0.000000
0.951666,	0.000041,	0.000000
0.955000,	0.000041,	0.000000
0.958333,	0.000041,	0.000000
0.961666,	0.000041,	0.000000
0.965000,	0.000041,	0.000000
0.968333,	0.000041,	0.000000
0.971666,	0.000041,	0.000000
0.975000,	0.000041,	0.000000
0.978333,	0.000041,	0.000000
0.981666,	0.000041,	0.000000
0.985000,	0.000041,	0.000000
0.988333,	0.000041,	0.000000
0.991667,	0.000041,	0.000000
0.995000,	0.000041,	0.000000
0.998333,	0.000041,	0.000000
0.001667,	0.000078,	0.000000
0.005000,	0.000078,	0.000000
0.008334,	0.000078,	0.000000
0.011666,	0.000078,	0.000000
0.015000,	0.000078,	0.000000
0.018334,	0.000078,	0.000000
0.021667,	0.000078,	0.000000
0.025000,	0.000078,	0.000000
0.028333,	0.000078,	0.000000
0.031667,	0.000078,	0.000000
0.035000,	0.000078,	0.000000
0.038333,	0.000078,	0.000000
0.041667,	0.000078,	0.000000
0.045000,	0.000078,	0.000000
0.048334,	0.000078,	0.000000
0.051667,	0.000078,	0.000000
0.055000,	0.000078,	0.000000
0.058333,	0.000078,	0.000000
0.061666,	0.000078,	0.000000
0.065000,	0.000078,	0.000000
0.068334,	0.000078,	0.000000
0.071666,	0.000078,	0.000000
0.075000,	0.000078,	0.000000
0.078334,	0.000078,	0.000000
0.081667,	0.000078,	0.000000
0.085000,	0.000078,	0.000000
0.088333,	0.000078,	0.000000
0.091666,	0.000078,	0.000000
0.095000,	0.000078,	0.000000
0.098334,	0.000078,	0.000000
0.101666,	0.000078,	0.000000
0.105000,	0.000078,	0.000000
0.108333,	0.000078,	0.000000
0.111667,	0.000078,	0.000000
0.115000,	0.000078,	0.000000
0.118334,	0.000078,	0.000000
0.121666,	0.000078,	0.000000
0.125000,	0.000078,	0.000000
0.128333,	0.000078,	0.000000
0.131667,	0.000078,	0.000000
0.135000,	0.000078,	0.000000
0.138333,	0.000078,	0.000000
0.141667,	0.000078,	0.000000
0.145000,	0.000078,	0.000000
0.148334,	0.000078,	0.000000
0.151666,	0.000078,	0.000000
0.155000,	0.000078,	0.000000
0.158334,	0.000078,	0.000000
0.161666,	0.000078,	0.000000
0.165000,	0.000078,	0.000000
0.168334,	0.000078,	0.000000
0.171666,	0.000078,	0.000000
0.175000,	0.000078,	0.000000
0.178334,	0.000078,	0.000000
0.181667,	0.000078,	0.000000
0.185000,	0.000078,	0.000000
0.188334,	0.000078,	0.000000
0.191667,	0.000078,	0.000000
0.195000,	0.000078,	0.000000
0.198334,	0.000078,	0.000000
0.201667,	0.000078,	0.000000
0.205000,	0.000078,	0.000000
0.208334,	0.000078,	0.000000
0.211666,	0.000078,	0.000000
0.215000,	0.000078,	0.000000
0.218334,	0.000078,	0.000000
0.221666,	0.000078,	0.000000
0.225000,	0.000078,	0.000000
0.228334,	0.000078,	0.000000
0.231666,	0.000078,	0.000000
0.235000,	0.000078,	0.000000
0.238333,	0.000078,	0.000000
0.241667,	0.000078,	0.000000
0.245000,	0.000078,	0.000000
0.248333,	0.000078,	0.000000
0.251667,	0.000078,	0.000000
0.255000,	0.000078,	0.000000
0.258333,	0.000078,	0.000000
0.261667,	0.000078,	0.000000
0.265000,	0.000078,	0.000000
0.268334,	0.000078,	0.000000
0.271667,	0.000078,	0.000000
0.275000,	0.000078,	0.000000
0.278334,	0.000078,	0.000000
0.281667,	0.000078,	0.000000
0.285000,	0.000078,	0.000000
0.288334,	0.000078,	0.000000
0.291666,	0.000078,	0.000000
0.295000,	0.000078,	0.000000
0.298334,	0.000078,	0.000000
0.301667,	0.000078,	0.000000
0.305000,	0.000078,	0.000000
0.308334,	0.000078,	0.000000
0.311666,	0.000078,	0.000000
0.315000,	0.000078,	0.000000
0.318333,	0.000078,	0.000000
0.321666,	0.000078,	0.000000
0.325000,	0.000078,	0.000000
0.328334,	0.000078,	0.000000
0.331666,	0.000078,	0.000000
0.335000,	0.000078,	0.000000
0.338334,	0.000078,	0.000000
0.341667,	0.000078,	0.000000
0.345000,	0.000078,	0.000000
0.348333,	0.000078,	0.000000
0.351666,	0.000078,	0.000000
0.355000,	0.000078,	0.000000
0.358334,	0.000078,	0.000000
0.361667,	0.000078,	0.000000
0.365000,	0.000078,	0.000000
0.368333,	0.000078,	0.000000
0.371667,	0.000078,	0.000000
0.375000,	0.000078,	0.000000
0.378333,	0.000078,	0.000000
0.381667,	0.000078,	0.000000
0.385000,	0.000078,	0.000000
0.388333,	0.000078,	0.000000
0.391667,	0.000078,	0.000000
0.395000,	0.000078,	0.000000
0.398334,	0.000078,	0.000000
0.401667,	0.000078,	0.000000
0.405000,	0.000078,	0.000000
0.408334,	0.000078,	0.000000
0.411666,	0.000078,	0.000000
0.415000,	0.000078,	0.000000
0.418334,	0.000078,	0.000000
0.421666,	0.000078,	0.000000
0.425000,	0.000078,	0.000000
0.428334,	0.000078,	0.000000
0.431667,	0.000078,	0.000000
0.435000,	0.000078,	0.000000